LAMMPS (2 Apr 2025)
OMP_NUM_THREADS environment is not set. Defaulting to 1 thread. (src/comm.cpp:99)
  using 1 OpenMP thread(s) per MPI task
Loaded 1 plugins from C:\Users\Abhiraj\AppData\Local\LAMMPS 64-bit 2Apr2025 with Python\plugins
units     metal
atom_style charge
boundary   s s s
read_data  GaN_nanobelt.data
Reading data file ...
  orthogonal box = (-0.0210474 -0.003314106 -0.006613986) to (210.49505 33.144374 66.146474)
  1 by 1 by 1 MPI processor grid
  reading atoms ...
  14121 atoms
  reading velocities ...
  14121 velocities
  read_data CPU = 0.094 seconds

pair_style sw
pair_coeff * * GaN.sw Ga N

neighbor 2.0 bin
neigh_modify delay 0 every 1 check yes

minimize 1.0e-6 1.0e-8 10000 100000
Neighbor list info ...
  update: every = 1 steps, delay = 0 steps, check = yes
  max neighbors/atom: 2000, page size: 100000
  master list distance cutoff = 3.8
  ghost atom cutoff = 3.8
  binsize = 1.9, bins = 111 18 35
  1 neighbor lists, perpetual/occasional/extra = 1 0 0
  (1) pair sw, perpetual
      attributes: full, newton on
      pair build: full/bin/atomonly
      stencil: full/bin/3d
      bin: standard
Per MPI rank memory allocation (min/avg/max) = 5.179 | 5.179 | 5.179 Mbytes
   Step          Temp          E_pair         E_mol          TotEng         Press          Volume    
         0   0              0              0              0              0              461624.37    
         1   0              0              0              0              0              461624.37    
Loop time of 0.000825 on 1 procs for 1 steps with 14121 atoms

0.0% CPU use with 1 MPI tasks x 1 OpenMP threads

Minimization stats:
  Stopping criterion = search direction is not downhill
  Energy initial, next-to-last, final = 
                     0                  0                  0
  Force two-norm initial, final = 0 0
  Force max component initial, final = 0 0
  Final line search alpha, max atom move = 0 0
  Iterations, force evaluations = 1 0

MPI task timing breakdown:
Section |  min time  |  avg time  |  max time  |%varavg| %total
---------------------------------------------------------------
Pair    | 0.000502   | 0.000502   | 0.000502   |   0.0 | 60.85
Neigh   | 0          | 0          | 0          |   0.0 |  0.00
Comm    | 0          | 0          | 0          |   0.0 |  0.00
Output  | 0          | 0          | 0          |   0.0 |  0.00
Modify  | 0          | 0          | 0          |   0.0 |  0.00
Other   |            | 0.000323   |            |       | 39.15

Nlocal:          14121 ave       14121 max       14121 min
Histogram: 1 0 0 0 0 0 0 0 0 0
Nghost:              0 ave           0 max           0 min
Histogram: 1 0 0 0 0 0 0 0 0 0
Neighs:              0 ave           0 max           0 min
Histogram: 1 0 0 0 0 0 0 0 0 0
FullNghs:       117304 ave      117304 max      117304 min
Histogram: 1 0 0 0 0 0 0 0 0 0

Total # of neighbors = 117304
Ave neighs/atom = 8.3070604
Neighbor list builds = 0
Dangerous builds = 0

timestep 0.001

fix nvt all nvt temp 300.0 300.0 0.1
run 100000
Per MPI rank memory allocation (min/avg/max) = 4.054 | 4.054 | 4.054 Mbytes
   Step          Temp          E_pair         E_mol          TotEng         Press          Volume    
         1   0              0              0              0              0              461624.37    
    100001   0              0              0              0              0              461624.37    
Loop time of 50.8287 on 1 procs for 100000 steps with 14121 atoms

Performance: 169.983 ns/day, 0.141 hours/ns, 1967.391 timesteps/s, 27.782 Matom-step/s
93.1% CPU use with 1 MPI tasks x 1 OpenMP threads

MPI task timing breakdown:
Section |  min time  |  avg time  |  max time  |%varavg| %total
---------------------------------------------------------------
Pair    | 33.909     | 33.909     | 33.909     |   0.0 | 66.71
Neigh   | 0          | 0          | 0          |   0.0 |  0.00
Comm    | 0.013769   | 0.013769   | 0.013769   |   0.0 |  0.03
Output  | 0.000279   | 0.000279   | 0.000279   |   0.0 |  0.00
Modify  | 14.86      | 14.86      | 14.86      |   0.0 | 29.23
Other   |            | 2.046      |            |       |  4.03

Nlocal:          14121 ave       14121 max       14121 min
Histogram: 1 0 0 0 0 0 0 0 0 0
Nghost:              0 ave           0 max           0 min
Histogram: 1 0 0 0 0 0 0 0 0 0
Neighs:              0 ave           0 max           0 min
Histogram: 1 0 0 0 0 0 0 0 0 0
FullNghs:       117304 ave      117304 max      117304 min
Histogram: 1 0 0 0 0 0 0 0 0 0

Total # of neighbors = 117304
Ave neighs/atom = 8.3070604
Neighbor list builds = 0
Dangerous builds = 0
unfix nvt

variable efield equal -1.0  # CHANGE THIS VALUE PER RUN
fix efield all efield 0.0 0.0 ${efield}
fix efield all efield 0.0 0.0 -1

fix nvt2 all nvt temp 300.0 300.0 0.1
run 100000
Per MPI rank memory allocation (min/avg/max) = 4.054 | 4.054 | 4.054 Mbytes
   Step          Temp          E_pair         E_mol          TotEng         Press          Volume    
    100001   0              0              0              0              0              461624.37    
    200001   949.55205     -5641.0923      0             -3908.0143      144.46744      42782243     
Loop time of 137.877 on 1 procs for 100000 steps with 14121 atoms

Performance: 62.665 ns/day, 0.383 hours/ns, 725.286 timesteps/s, 10.242 Matom-step/s
90.5% CPU use with 1 MPI tasks x 1 OpenMP threads

MPI task timing breakdown:
Section |  min time  |  avg time  |  max time  |%varavg| %total
---------------------------------------------------------------
Pair    | 77.253     | 77.253     | 77.253     |   0.0 | 56.03
Neigh   | 26.099     | 26.099     | 26.099     |   0.0 | 18.93
Comm    | 0.71225    | 0.71225    | 0.71225    |   0.0 |  0.52
Output  | 0.000262   | 0.000262   | 0.000262   |   0.0 |  0.00
Modify  | 31.389     | 31.389     | 31.389     |   0.0 | 22.77
Other   |            | 2.423      |            |       |  1.76

Nlocal:          14121 ave       14121 max       14121 min
Histogram: 1 0 0 0 0 0 0 0 0 0
Nghost:              0 ave           0 max           0 min
Histogram: 1 0 0 0 0 0 0 0 0 0
Neighs:              0 ave           0 max           0 min
Histogram: 1 0 0 0 0 0 0 0 0 0
FullNghs:       156684 ave      156684 max      156684 min
Histogram: 1 0 0 0 0 0 0 0 0 0

Total # of neighbors = 156684
Ave neighs/atom = 11.095815
Neighbor list builds = 4925
Dangerous builds = 0
unfix nvt2

region mid block INF INF INF INF 10 12 units box
group middle region mid
0 atoms in group middle

fix bend middle addforce 0.0 0.02 0.0
run 5000
WARNING: No fixes with time integration, atoms won't move
For more information see https://docs.lammps.org/err0028 (src/verlet.cpp:60)
Per MPI rank memory allocation (min/avg/max) = 36.57 | 36.57 | 36.57 Mbytes
   Step          Temp          E_pair         E_mol          TotEng         Press          Volume    
    200001   949.55205     -5641.0923      0             -3908.0143      144.45701      42785332     
    205001   949.55205     -5641.0923      0             -3908.0143      144.45701      42785332     
Loop time of 4.83486 on 1 procs for 5000 steps with 14121 atoms

Performance: 89.351 ns/day, 0.269 hours/ns, 1034.156 timesteps/s, 14.603 Matom-step/s
88.5% CPU use with 1 MPI tasks x 1 OpenMP threads

MPI task timing breakdown:
Section |  min time  |  avg time  |  max time  |%varavg| %total
---------------------------------------------------------------
Pair    | 3.8744     | 3.8744     | 3.8744     |   0.0 | 80.13
Neigh   | 0          | 0          | 0          |   0.0 |  0.00
Comm    | 0.000671   | 0.000671   | 0.000671   |   0.0 |  0.01
Output  | 0.000205   | 0.000205   | 0.000205   |   0.0 |  0.00
Modify  | 0.85921    | 0.85921    | 0.85921    |   0.0 | 17.77
Other   |            | 0.1004     |            |       |  2.08

Nlocal:          14121 ave       14121 max       14121 min
Histogram: 1 0 0 0 0 0 0 0 0 0
Nghost:              0 ave           0 max           0 min
Histogram: 1 0 0 0 0 0 0 0 0 0
Neighs:              0 ave           0 max           0 min
Histogram: 1 0 0 0 0 0 0 0 0 0
FullNghs:       156684 ave      156684 max      156684 min
Histogram: 1 0 0 0 0 0 0 0 0 0

Total # of neighbors = 156684
Ave neighs/atom = 11.095815
Neighbor list builds = 0
Dangerous builds = 0
unfix bend

unfix efield

fix nve all nve

# ---------- Compute Stress Tensor ----------
compute stress all stress/atom NULL
compute pzz all reduce sum c_stress[3]
variable lz equal lz
variable area equal lx*ly
variable stress_z equal c_pzz/v_area  # stress in GPa

thermo 100
thermo_style custom step temp v_stress_z pe ke etotal

# ---------- Set Dump Directory Based on E-field ----------
variable dumpdir string dump_vibrate_${efield}
variable dumpdir string dump_vibrate_-1
shell mkdir ${dumpdir}
shell mkdir dump_vibrate_-1

# ---------- Dump Vibrate Files to Specified Folder ----------
dump 1 all custom 100 ${dumpdir}/dump.vibrate.* id type x y z
dump 1 all custom 100 dump_vibrate_-1/dump.vibrate.* id type x y z

run 500000
Per MPI rank memory allocation (min/avg/max) = 37.32 | 37.32 | 37.32 Mbytes
   Step          Temp        v_stress_z       PotEng         KinEng         TotEng    
    205001   949.55205     -2657150.7     -5641.0923      1733.078      -3908.0143    
    205100   970.09279     -2476667.2     -5678.7935      1770.568      -3908.2255    
    205200   1028.6831     -1780804.9     -5786.2629      1877.5043     -3908.7586    
    205300   1055.7561     -831919.31     -5835.8265      1926.9166     -3908.9098    
    205400   1025.7836      61907.852     -5780.8384      1872.2122     -3908.6262    
    205500   974.06205      678159.21     -5686.0848      1777.8125     -3908.2723    
    205600   949.55351      897658.15     -5641.2054      1733.0807     -3908.1248    
    205700   973.39499      684536.72     -5684.8632      1776.595      -3908.2681    
    205800   1025.0391      73571.684     -5779.474       1870.8535     -3908.6205    
    205900   1055.6982     -817478.02     -5835.7191      1926.811      -3908.9081    
    206000   1029.4735     -1767674.9     -5787.7117      1878.9469     -3908.7648    
    206100   970.84444     -2469674.3     -5680.1729      1771.9399     -3908.233     
    206200   951.49768     -2640847.7     -5644.6638      1736.6291     -3908.0348    
    206300   996.93264     -2204245.1     -5728.0394      1819.5549     -3908.4845    
    206400   1048.5312     -1349739.7     -5822.6279      1913.73       -3908.8978    
    206500   1047.701      -392118.82     -5821.0263      1912.215      -3908.8113    
    206600   1001.1015      393351.95     -5735.612       1827.1637     -3908.4483    
    206700   957.01636      833770.24     -5654.8702      1746.7015     -3908.1686    
    206800   954.95528      851647.88     -5651.0962      1742.9397     -3908.1564    
    206900   996.67461      444134.34     -5727.5022      1819.0839     -3908.4183    
    207000   1045.0677     -318074.78     -5816.1951      1907.4087     -3908.7864    
    207100   1050.8064     -1270674.6     -5826.7925      1917.8827     -3908.9098    
    207200   1002.0366     -2145806.5     -5737.4016      1828.8703     -3908.5313    
    207300   953.1499      -2626884       -5647.6967      1739.6446     -3908.0521    
    207400   966.8395      -2506587.1     -5672.823       1764.6303     -3908.1927    
    207500   1025.0297     -1839149       -5779.5656      1870.8362     -3908.7294    
    207600   1055.8425     -897040.17     -5835.9909      1927.0744     -3908.9165    
    207700   1029.0668      8659.4344     -5786.8564      1878.2047     -3908.6517    
    207800   977.14297      648362.21     -5691.7272      1783.4357     -3908.2916    
    207900   949.69719      896449.53     -5641.4685      1733.3429     -3908.1256    
    208000   970.48052      712104.41     -5679.5258      1771.2757     -3908.2501    
    208100   1021.6329      125232.49     -5773.2314      1864.6367     -3908.5947    
    208200   1055.2659     -752717.82     -5834.9208      1926.0219     -3908.8988    
    208300   1032.9218     -1707943.1     -5794.032       1885.2406     -3908.7914    
    208400   974.34283     -2436714       -5686.5928      1778.325      -3908.2679    
    208500   950.51517     -2649099.2     -5642.8603      1734.8358     -3908.0245    
    208600   992.7831      -2249915       -5720.4272      1811.9813     -3908.4459    
    208700   1046.3725     -1413939.3     -5818.6754      1909.7902     -3908.8851    
    208800   1049.6086     -453611.22     -5824.5269      1915.6966     -3908.8303    
    208900   1004.7426      350031.95     -5742.2824      1833.8091     -3908.4733    
    209000   958.93115      816994.39     -5658.3763      1750.1963     -3908.18      
    209100   953.50578      864112.12     -5648.4421      1740.2942     -3908.1479    
    209200   993.09172      483865.05     -5720.939       1812.5446     -3908.3944    
    209300   1042.6821     -258493.67     -5811.8193      1903.0545     -3908.7648    
    209400   1052.3614     -1205620.7     -5829.6376      1920.7208     -3908.9168    
    209500   1006.2067     -2095968.6     -5745.0503      1836.4815     -3908.5688    
    209600   954.85936     -2612318.2     -5650.8345      1742.7647     -3908.0699    
    209700   963.81166     -2533947.4     -5667.266       1759.104      -3908.162     
    209800   1021.2312     -1896244.1     -5772.6017      1863.9034     -3908.6983    
    209900   1055.6419     -962361.3      -5835.6293      1926.7083     -3908.921     
    210000   1032.2309     -45830.42      -5792.6563      1883.9795     -3908.6768    
    210100   980.34559      616766.23     -5697.5927      1789.2809     -3908.3118    
    210200   950.07544      893264.12     -5642.1611      1734.0333     -3908.1278    
    210300   967.71587      737825.37     -5674.4629      1766.2298     -3908.2331    
    210400   1018.1452      175539.66     -5766.8398      1858.2709     -3908.5688    
    210500   1054.5563     -688344.95     -5833.6145      1924.7269     -3908.8876    
    210600   1036.1812     -1647190.1     -5800.0052      1891.1894     -3908.8157    
    210700   978.01538     -2401344.1     -5693.332       1785.0279     -3908.3041    
    210800   949.87259     -2654475.1     -5641.6807      1733.663      -3908.0177    
    210900   988.68563     -2293561       -5712.91        1804.5028     -3908.4072    
    211000   1043.9567     -1477596.1     -5814.2509      1905.381      -3908.8699    
    211100   1051.2811     -515852.32     -5827.5971      1918.7492     -3908.8479    
    211200   1008.3829      305155.33     -5748.952       1840.4533     -3908.4987    
    211300   961.04337      798296.31     -5662.2441      1754.0514     -3908.1927    
    211400   952.27562      874621.5      -5646.1896      1738.0489     -3908.1407    
    211500   989.5611       521926.58     -5714.4719      1806.1006     -3908.3712    
    211600   1040.1033     -199878.69     -5807.0901      1898.3479     -3908.7422    
    211700   1053.6342     -1140337.7     -5831.9652      1923.0439     -3908.9213    
    211800   1010.344      -2044408.5     -5752.6381      1844.0327     -3908.6054    
    211900   956.87792     -2594959.7     -5654.5397      1746.4488     -3908.0908    
    212000   961.0302      -2558688.6     -5662.161       1754.0274     -3908.1336    
    212100   1017.3096     -1951988.2     -5765.4113      1856.7458     -3908.6654    
    212200   1055.1524     -1027795.2     -5834.738       1925.8148     -3908.9232    
    212300   1035.2591     -101507.63     -5798.2079      1889.5065     -3908.7014    
    212400   983.65623      583395.47     -5703.6563      1795.3234     -3908.3329    
    212500   950.68673      888104.05     -5643.2803      1735.149      -3908.1314    
    212600   965.11255      761680.71     -5669.6956      1761.4783     -3908.2173    
    212700   1014.593       224446.25     -5760.3306      1851.7876     -3908.5429    
    212800   1053.5761     -624440.13     -5831.8124      1922.9379     -3908.8745    
    212900   1039.2341     -1585518.3     -5805.5992      1896.7615     -3908.8377    
    213000   981.83731     -2363639.5     -5700.3449      1792.0036     -3908.3414    
    213100   949.57453     -2656963.2     -5641.1336      1733.119      -3908.0146    
    213200   984.66684     -2335095       -5705.5366      1797.1679     -3908.3687    
    213300   1041.2951     -1540609.9     -5809.3752      1900.5231     -3908.8521    
    213400   1052.7074     -578769.76     -5830.2163      1921.3524     -3908.8639    
    213500   1012.0056      258761.2      -5755.5896      1847.0653     -3908.5244    
    213600   963.34442      777689.18     -5666.4578      1758.2512     -3908.2066    
    213700   951.26973      883168.85     -5644.3478      1736.213      -3908.1348    
    213800   986.09839      558288.08     -5708.1294      1799.7807     -3908.3487    
    213900   1037.346      -142292.46     -5802.0342      1893.3154     -3908.7188    
    214000   1054.6208     -1074920       -5833.7678      1924.8446     -3908.9233    
    214100   1014.4231     -1991224.4     -5760.1184      1851.4775     -3908.6408    
    214200   959.19132     -2574847.3     -5658.7859      1750.6712     -3908.1147    
    214300   958.51448     -2580756.2     -5657.5436      1749.4358     -3908.1077    
    214400   1013.2878     -2006280       -5758.0365      1849.4055     -3908.631     
    214500   1054.3735     -1093252.6     -5833.3161      1924.3932     -3908.923     
    214600   1038.1355     -158315.84     -5803.4817      1894.7563     -3908.7254    
    214700   987.0606       548275.88     -5709.8918      1801.5369     -3908.3549    
    214800   951.52863      880972.81     -5644.8219      1736.6856     -3908.1363    
    214900   962.68136      783653.16     -5665.2436      1757.041      -3908.2025    
    215000   1010.9936      271907.44     -5753.7354      1845.2182     -3908.5171    
    215100   1052.3333     -561081.87     -5829.5292      1920.6696     -3908.8596    
    215200   1042.0647     -1523029.6     -5810.7851      1901.9278     -3908.8573    
    215300   985.78309     -2323678.7     -5707.5847      1799.2052     -3908.3795    
    215400   949.62312     -2656557.9     -5641.2228      1733.2077     -3908.0151    
    215500   980.75314     -2374431.9     -5698.3556      1790.0248     -3908.3308    
    215600   1038.4007     -1602880.1     -5804.0722      1895.2404     -3908.8318    
    215700   1053.8775     -642288.9      -5832.3663      1923.488      -3908.8783    
    215800   1015.5935      210890.74     -5762.1639      1853.6137     -3908.5502    
    215900   965.82487      755187.66     -5671           1762.7784     -3908.2216    
    216000   950.49212      889748.37     -5642.924       1734.7938     -3908.1302    
    216100   982.7188       592920.52     -5701.9394      1793.6124     -3908.3269    
    216200   1034.4255     -85795.242     -5796.6796      1887.985      -3908.6946    
    216300   1055.3187     -1009460.1     -5835.0412      1926.1184     -3908.9228    
    216400   1018.4192     -1936515.7     -5767.4459      1858.771      -3908.6748    
    216500   961.78333     -2552025.6     -5663.5433      1755.402      -3908.1413    
    216600   956.28211     -2600101.5     -5653.4461      1745.3614     -3908.0846    
    216700   1009.1899     -2059019.2     -5750.5215      1841.9262     -3908.5953    
    216800   1053.3064     -1158641.9     -5831.3659      1922.4456     -3908.9203    
    216900   1040.8443     -216196.41     -5808.4489      1899.7003     -3908.7486    
    217000   990.54389      511435.18     -5716.272       1807.8944     -3908.3776    
    217100   952.59779      871875.23     -5646.7795      1738.637      -3908.1426    
    217200   960.43229      803726.95     -5661.1251      1752.9361     -3908.189     
    217300   1007.3642      317880.56     -5747.0857      1838.5941     -3908.4915    
    217400   1050.837      -498346.45     -5826.7817      1917.9386     -3908.8431    
    217500   1044.6587     -1459825.5     -5815.5367      1906.6623     -3908.8744    
    217600   989.82659     -2281544.4     -5715.0032      1806.5852     -3908.418     
    217700   950.018       -2653260       -5641.9477      1733.9284     -3908.0192    
    217800   976.9705      -2411490.4     -5691.4147      1783.1209     -3908.2938    
    217900   1035.2883     -1664304.9     -5798.3689      1889.5598     -3908.8091    
    218000   1054.7827     -706332.84     -5834.0309      1925.14       -3908.8909    
    218100   1019.1294      161587.23     -5768.6434      1860.0673     -3908.5761    
    218200   968.47449      730807.92     -5675.8521      1767.6144     -3908.2378    
    218300   949.94591      894355.61     -5641.9239      1733.7969     -3908.127     
    218400   979.437        625796.67     -5695.9287      1787.6226     -3908.3061    
    218500   1031.3576     -30445.043     -5791.0554      1882.3856     -3908.6698    
    218600   1055.7272     -944048.86     -5835.7839      1926.8639     -3908.92      
    218700   1022.3086     -1880382.9     -5774.577       1865.8698     -3908.7072    
    218800   964.63582     -2526545.1     -5668.7786      1760.6082     -3908.1704    
    218900   954.34879     -2616681.4     -5649.8974      1741.8328     -3908.0646    
    219000   1005.0408     -2110106.6     -5742.9119      1834.3535     -3908.5584    
    219100   1051.954      -1223870.3     -5828.8924      1919.9773     -3908.9151    
    219200   1043.3704     -275088.43     -5813.0818      1904.3109     -3908.771     
    219300   994.09075      472902.9      -5722.769       1814.368      -3908.4011    
    219400   953.88993      860817.49     -5649.1455      1740.9953     -3908.1502    
    219500   958.37454      821887.85     -5657.3571      1749.1804     -3908.1767    
    219600   1003.722       362325.01     -5740.4127      1831.9465     -3908.4663    
    219700   1049.0975     -436307.88     -5823.5889      1914.7637     -3908.8251    
    219800   1047.0036     -1396006.7     -5819.8309      1910.942      -3908.8889    
    219900   993.94134     -2237322.5     -5722.552       1814.0953     -3908.4567    
    220000   950.75636     -2647077.1     -5643.3031      1735.2761     -3908.027     
    220100   973.34428     -2446192.6     -5684.7604      1776.5025     -3908.258     
    220200   1031.9742     -1724782.1     -5792.2952      1883.511      -3908.7842    
    220300   1055.4152     -770822.44     -5835.1961      1926.2944     -3908.9016    
    220400   1022.596       110896.06     -5774.9964      1866.3945     -3908.602     
    220500   971.28231      704567.7      -5680.9941      1772.7391     -3908.255     
    220600   949.63325      896987.45     -5641.3514      1733.2262     -3908.1252    
    220700   976.26712      656891.1      -5690.1232      1781.8371     -3908.2861    
    220800   1028.1584      23702.425     -5785.1913      1876.5467     -3908.6446    
    220900   1055.8471     -878775.09     -5835.9977      1927.0828     -3908.9149    
    221000   1026.0686     -1822927.6     -5781.4702      1872.7324     -3908.7378    
    221100   967.72899     -2498461.5     -5674.4554      1766.2537     -3908.2017    
    221200   952.72817     -2630458.8     -5646.9226      1738.8749     -3908.0476    
    221300   1000.8661     -2159444.9     -5735.2546      1826.734      -3908.5206    
    221400   1050.321      -1288842.9     -5825.9042      1916.9968     -3908.9074    
    221500   1045.6994     -334928.63     -5817.3539      1908.5616     -3908.7923    
    221600   997.68541      432710.43     -5729.3539      1820.9288     -3908.4251    
    221700   955.39986      847807.14     -5651.9102      1743.7512     -3908.1591    
    221800   956.51647      838123.11     -5653.9548      1745.7891     -3908.1657    
    221900   1000.0838      405202.23     -5733.7476      1825.3062     -3908.4414    
    222000   1047.1262     -375037.85     -5819.9715      1911.1657     -3908.8058    
    222100   1049.0883     -1331672.8     -5823.6479      1914.747      -3908.9009    
    222200   998.10069     -2191101.9     -5730.182       1821.6867     -3908.4953    
    222300   951.83294     -2638023.2     -5645.2793      1737.241      -3908.0383    
    222400   969.899       -2478465.1     -5678.4379      1770.2143     -3908.2236    
    222500   1028.4763     -1784209.4     -5785.8838      1877.1268     -3908.7569    
    222600   1055.7688     -835676.36     -5835.8502      1926.9399     -3908.9103    
    222700   1025.9763      58864.792     -5781.1916      1872.5639     -3908.6277    
    222800   974.23658      676486.31     -5686.4044      1778.1311     -3908.2734    
    222900   949.55541      897642.14     -5641.2089      1733.0841     -3908.1248    
    223000   973.22267      686180.08     -5684.5476      1776.2805     -3908.2671    
    223100   1024.8448      76593.711     -5779.1178      1870.4988     -3908.619     
    223200   1055.6809     -813725.74     -5835.6869      1926.7794     -3908.9076    
    223300   1029.6777     -1764252       -5788.0859      1879.3195     -3908.7664    
    223400   971.04148     -2467836       -5680.5345      1772.2995     -3908.235     
    223500   951.43174     -2641402.7     -5644.5428      1736.5087     -3908.0341    
    223600   996.69185     -2206938.4     -5727.5977      1819.1154     -3908.4823    
    223700   1048.4136     -1353463.5     -5822.4126      1913.5154     -3908.8972    
    223800   1047.8175     -395651.48     -5821.24        1912.4275     -3908.8125    
    223900   1001.3117      390891.08     -5735.997       1827.5473     -3908.4497    
    224000   957.12152      832853.14     -5655.0627      1746.8934     -3908.1693    
    224100   954.86563      852421.41     -5650.932       1742.7761     -3908.1559    
    224200   996.46637      446475.68     -5727.1208      1818.7038     -3908.4169    
    224300   1044.9353     -314605.79     -5815.9523      1907.1671     -3908.7852    
    224400   1050.9039     -1266922.4     -5826.9709      1918.0606     -3908.9103    
    224500   1002.278      -2142974.5     -5737.8445      1829.311      -3908.5335    
    224600   953.24006     -2626118.8     -5647.8622      1739.8092     -3908.053     
    224700   966.65814     -2508238.8     -5672.4902      1764.2992     -3908.1909    
    224800   1024.8139     -1842484.1     -5779.17        1870.4424     -3908.7277    
    224900   1055.8388     -900811.14     -5835.9844      1927.0675     -3908.9169    
    225000   1029.2531      5543.1855     -5787.1978      1878.5447     -3908.6532    
    225100   977.32489      646584.7      -5692.0604      1783.7677     -3908.2927    
    225200   949.71268      896319.23     -5641.4969      1733.3712     -3908.1257    
    225300   970.31653      713641.57     -5679.2254      1770.9764     -3908.2491    
    225400   1021.4334      128177.59     -5772.8657      1864.2725     -3908.5932    
    225500   1055.2324     -748985.7      -5834.859       1925.9608     -3908.8982    
    225600   1033.1155     -1704458.4     -5794.387       1885.5942     -3908.7929    
    225700   974.55059     -2434734.5     -5686.9741      1778.7042     -3908.2699    
    225800   950.46871     -2649488.4     -5642.775       1734.7511     -3908.024     
    225900   992.54459     -2252493.7     -5719.9896      1811.546      -3908.4436    
    226000   1046.2398     -1417634.5     -5818.4323      1909.548      -3908.8843    
    226100   1049.7118     -457189.09     -5824.7163      1915.8849     -3908.8314    
    226200   1004.9531      347480.08     -5742.6683      1834.1935     -3908.4748    
    226300   959.04794      815965.85     -5658.5902      1750.4095     -3908.1807    
    226400   953.42866      864772.87     -5648.3008      1740.1534     -3908.1474    
    226500   992.88607      486110.78     -5720.5623      1812.1692     -3908.3931    
    226600   1042.5381     -255078.77     -5811.5554      1902.7918     -3908.7635    
    226700   1052.4427     -1201852.6     -5829.7863      1920.8692     -3908.9172    
    226800   1006.447      -2093034.3     -5745.491       1836.92       -3908.571     
    226900   954.96775     -2611390.6     -5651.0335      1742.9625     -3908.071     
    227000   963.64398     -2535449.4     -5666.9583      1758.7979     -3908.1603    
    227100   1021.0077     -1899503.9     -5772.1919      1863.4954     -3908.6964    
    227200   1055.6215     -966141.2      -5835.5922      1926.6711     -3908.9212    
    227300   1032.4097     -49016.793     -5792.9842      1884.306      -3908.6783    
    227400   980.53414      614885.46     -5697.9381      1789.6251     -3908.313     
    227500   950.10444      893019.61     -5642.2142      1734.0862     -3908.128     
    227600   967.56089      739255.19     -5674.1791      1765.9469     -3908.2322    
    227700   1017.9414      178405.07     -5766.4665      1857.8991     -3908.5673    
    227800   1054.507      -684637.7      -5833.5237      1924.6368     -3908.8869    
    227900   1036.3634     -1643649.5     -5800.3391      1891.522      -3908.8171    
    228000   978.23246     -2399227.6     -5693.7304      1785.4242     -3908.3062    
    228100   949.84595     -2654697.6     -5641.6318      1733.6144     -3908.0174    
    228200   988.45094     -2296020       -5712.4794      1804.0744     -3908.405     
    228300   1043.8094     -1481256.8     -5813.9811      1905.1122     -3908.8689    
    228400   1051.3704     -519471.27     -5827.7609      1918.9121     -3908.8489    
    228500   1008.5929      302514.66     -5749.3368      1840.8367     -3908.5002    
    228600   961.17132      797157.05     -5662.4784      1754.285      -3908.1935    
    228700   952.21133      875169.03     -5646.0719      1737.9316     -3908.1403    
    228800   989.35895      524074.88     -5714.1016      1805.7317     -3908.3699    
    228900   1039.9486     -196521.58     -5806.8065      1898.0656     -3908.7409    
    229000   1053.6991     -1136559.3     -5832.0837      1923.1623     -3908.9215    
    229100   1010.5816     -2041377.8     -5753.0738      1844.4663     -3908.6075    
    229200   957.00375     -2593871.8     -5654.7706      1746.6785     -3908.0921    
    229300   960.87737     -2560037.4     -5661.8805      1753.7485     -3908.132     
    229400   1017.0796     -1955166.8     -5764.9896      1856.3261     -3908.6635    
    229500   1055.1152     -1031578.9     -5834.6702      1925.747      -3908.9232    
    229600   1035.4297     -104760.93     -5798.5206      1889.8178     -3908.7028    
    229700   983.85059      581412.9      -5704.0123      1795.6781     -3908.3342    
    229800   950.72914      887745.5      -5643.358       1735.2264     -3908.1316    
    229900   964.96724      763002.16     -5669.4295      1761.2131     -3908.2164    
    230000   1014.386       227229.31     -5759.9514      1851.41       -3908.5415    
    230100   1053.5114     -620762.36     -5831.6934      1922.8197     -3908.8737    
    230200   1039.4039     -1581927.7     -5805.9103      1897.0714     -3908.8389    
    230300   982.06226     -2361390.4     -5700.7577      1792.4141     -3908.3436    
    230400   949.56789     -2657018.6     -5641.1214      1733.1069     -3908.0145    
    230500   984.43751     -2337429.3     -5705.1159      1796.7493     -3908.3665    
    230600   1041.134      -1544230.4     -5809.08        1900.2291     -3908.851     
    230700   1052.7821     -582425.54     -5830.3535      1921.4887     -3908.8648    
    230800   1012.2141      256034.05     -5755.9717      1847.4458     -3908.5258    
    230900   963.483        776440.01     -5666.7115      1758.5041     -3908.2074    
    231000   951.21853      883602.78     -5644.2541      1736.1196     -3908.1345    
    231100   985.90064      560337.21     -5707.7672      1799.4198     -3908.3474    
    231200   1037.1815     -138996.66     -5801.7325      1893.0152     -3908.7174    
    231300   1054.669      -1071136.7     -5833.8559      1924.9326     -3908.9233    
    231400   1014.6565     -1988102.8     -5760.5465      1851.9037     -3908.6428    
    231500   959.33372     -2573601.5     -5659.0472      1750.9311     -3908.1162    
    231600   958.37757     -2581948.9     -5657.2923      1749.1859     -3908.1063    
    231700   1013.0528     -2009371.6     -5757.6055      1848.9765     -3908.629     
    231800   1054.3196     -1097034.8     -5833.2177      1924.2949     -3908.9229    
    231900   1038.2968     -161632.74     -5803.7774      1895.0507     -3908.7268    
    232000   987.25994      546193.06     -5710.2569      1801.9007     -3908.3562    
    232100   951.58428      880500.46     -5644.9238      1736.7871     -3908.1366    
    232200   962.54631      784865.28     -5664.9963      1756.7945     -3908.2017    
    232300   1010.7845      274605.63     -5753.3522      1844.8365     -3908.5157    
    232400   1052.2536     -557438.05     -5829.3828      1920.5242     -3908.8587    
    232500   1042.2212     -1519394.9     -5811.0718      1902.2134     -3908.8584    
    232600   986.0144      -2321301.7     -5708.0091      1799.6274     -3908.3817    
    232700   949.63653     -2656446       -5641.2474      1733.2322     -3908.0152    
    232800   980.53069     -2376636.7     -5697.9475      1789.6188     -3908.3287    
    232900   1038.2266     -1606454.5     -5803.7532      1894.9226     -3908.8306    
    233000   1053.9372     -645977.13     -5832.4759      1923.5968     -3908.8791    
    233100   1015.7994      208079.56     -5762.5413      1853.9896     -3908.5517    
    233200   965.97352      753829.48     -5671.2722      1763.0497     -3908.2225    
    233300   950.45423      890068.41     -5642.8546      1734.7246     -3908.13      
    233400   982.52631      594868.85     -5701.5868      1793.2611     -3908.3257    
    233500   1034.252      -82564.191     -5796.3616      1887.6684     -3908.6932    
    233600   1055.3502     -1005677.1     -5835.0985      1926.1758     -3908.9227    
    233700   1018.6471     -1933309       -5767.8638      1859.1871     -3908.6767    
    233800   961.94129     -2550624.7     -5663.8332      1755.6903     -3908.1429    
    233900   956.16208     -2601135.5     -5653.2257      1745.1423     -3908.0834    
    234000   1008.9512     -2062018       -5750.0838      1841.4906     -3908.5932    
    234100   1053.2359     -1162417.5     -5831.2371      1922.317      -3908.9201    
    234200   1040.9954     -219573.46     -5808.7261      1899.9761     -3908.7499    
    234300   990.74731      509253.76     -5716.6447      1808.2657     -3908.379     
    234400   952.66645      871289.39     -5646.9052      1738.7623     -3908.143     
    234500   960.30806      804828.88     -5660.8977      1752.7094     -3908.1883    
    234600   1007.1539      320491.48     -5746.7003      1838.2102     -3908.4901    
    234700   1050.743      -494740.92     -5826.6091      1917.767      -3908.8421    
    234800   1044.8011     -1456152.5     -5815.7975      1906.9222     -3908.8753    
    234900   990.06274     -2279044.4     -5715.4365      1807.0162     -3908.4202    
    235000   950.05136     -2652981.1     -5642.0089      1733.9893     -3908.0196    
    235100   976.75641     -2413561.1     -5691.0218      1782.7301     -3908.2917    
    235200   1035.102      -1667827.3     -5798.0276      1889.2199     -3908.8078    
    235300   1054.8267     -710049.01     -5834.112       1925.2204     -3908.8916    
    235400   1019.3318      158694.59     -5769.0143      1860.4367     -3908.5776    
    235500   968.63259      729341.7      -5676.1417      1767.9029     -3908.2387    
    235600   949.92146      894561.54     -5641.8791      1733.7522     -3908.1269    
    235700   979.2506       627642.7      -5695.5873      1787.2824     -3908.3049    
    235800   1031.1761     -27282.015     -5790.7227      1882.0543     -3908.6684    
    235900   1055.742      -940271.41     -5835.8106      1926.8909     -3908.9197    
    236000   1022.5296     -1877097       -5774.9823      1866.2733     -3908.709     
    236100   964.80826     -2524992.1     -5669.0951      1760.9229     -3908.1722    
    236200   954.24649     -2617554.4     -5649.7096      1741.6461     -3908.0635    
    236300   1004.8        -2113007       -5742.4701      1833.9139     -3908.5562    
    236400   1051.8672     -1227633.6     -5828.7336      1919.8189     -3908.9148    
    236500   1043.5105     -278522.02     -5813.3388      1904.5666     -3908.7722    
    236600   994.29737      470624.64     -5723.1475      1814.7451     -3908.4025    
    236700   953.97133      860118.57     -5649.2945      1741.1439     -3908.1506    
    236800   958.26163      822878.81     -5657.1504      1748.9743     -3908.1761    
    236900   1003.5114      364846.37     -5740.027       1831.5622     -3908.4648    
    237000   1048.9898     -432744.83     -5823.3911      1914.5671     -3908.8241    
    237100   1047.1312     -1392301.2     -5820.0647      1911.175      -3908.8897    
    237200   994.18079     -2234704.5     -5722.9913      1814.5323     -3908.459     
    237300   950.80944     -2646631.8     -5643.4005      1735.3729     -3908.0276    
    237400   973.13999     -2448124.8     -5684.3855      1776.1296     -3908.2559    
    237500   1031.7768     -1728246.6     -5791.9335      1883.1508     -3908.7826    
    237600   1055.4433     -774561.9      -5835.2479      1926.3457     -3908.9022    
    237700   1022.7939      107924.64     -5775.3591      1866.7556     -3908.6035    
    237800   971.44919      702994.52     -5681.2997      1773.0437     -3908.2561    
    237900   949.62235      897079.14     -5641.3315      1733.2063     -3908.1252    
    238000   976.08761      658633.4      -5689.7944      1781.5095     -3908.285     
    238100   1027.9699      26794.279     -5784.8457      1876.2026     -3908.6431    
    238200   1055.8453     -875008.26     -5835.9939      1927.0794     -3908.9145    
    238300   1026.2815     -1819568.4     -5781.8605      1873.121      -3908.7395    
    238400   967.9147      -2496760       -5674.7963      1766.5927     -3908.2036    
    238500   952.64431     -2631168.8     -5646.7686      1738.7219     -3908.0468    
    238600   1000.6245     -2162241.2     -5734.8116      1826.2931     -3908.5184    
    238700   1050.2181     -1292588.6     -5825.716       1916.8091     -3908.9069    
    238800   1045.8277     -338415.06     -5817.5893      1908.7958     -3908.7935    
    238900   997.89431      430337.22     -5729.7366      1821.31       -3908.4265    
    239000   955.49367      846995.62     -5652.082       1743.9224     -3908.1596    
    239100   956.41534      839002.4      -5653.7697      1745.6046     -3908.1651    
    239200   999.874        407631.87     -5733.3632      1824.9233     -3908.4399    
    239300   1047.0054     -371521.38     -5819.7499      1910.9453     -3908.8046    
    239400   1049.2007     -1327940.6     -5823.8536      1914.9521     -3908.9015    
    239500   998.3419      -2188371.2     -5730.6245      1822.127      -3908.4975    
    239600   951.90536     -2637412.5     -5645.4122      1737.3732     -3908.039     
    239700   969.70589     -2480254.8     -5678.0835      1769.8618     -3908.2216    
    239800   1028.2689     -1787610.1     -5785.5036      1876.7483     -3908.7553    
    239900   1055.7806     -839434.35     -5835.8722      1926.9615     -3908.9107    
    240000   1026.1687      55817.421     -5781.5443      1872.9151     -3908.6292    
    240100   974.41156      674807.34     -5686.7249      1778.4504     -3908.2745    
    240200   949.5581       897619.52     -5641.2138      1733.089      -3908.1248    
    240300   973.0508       687817.34     -5684.2328      1775.9668     -3908.266     
    240400   1024.6501      79611.369     -5778.761       1870.1434     -3908.6176    
    240500   1055.6626     -809974.51     -5835.6531      1926.746      -3908.9071    
    240600   1029.8812     -1760825.3     -5788.459       1879.6911     -3908.768     
    240700   971.23918     -2465989.5     -5680.8973      1772.6603     -3908.237     
    240800   951.36692     -2641948.1     -5644.4238      1736.3904     -3908.0334    
    240900   996.45115     -2209625.2     -5727.1561      1818.676      -3908.4801    
    241000   1048.2951     -1357185.8     -5822.1957      1913.2992     -3908.8965    
    241100   1047.9332     -399186.86     -5821.4523      1912.6387     -3908.8136    
    241200   1001.5219      388424.89     -5736.3822      1827.931      -3908.4512    
    241300   957.22736      831929.58     -5655.2565      1747.0866     -3908.1699    
    241400   954.77669      853188.43     -5650.7692      1742.6138     -3908.1554    
    241500   996.25826      448811.55     -5726.7395      1818.324      -3908.4155    
    241600   1044.8022     -311139.82     -5815.7082      1906.9242     -3908.784     
    241700   1051.0004     -1263169.1     -5827.1476      1918.2368     -3908.9108    
    241800   1002.5195     -2140136.4     -5738.2873      1829.7517     -3908.5357    
    241900   953.3313      -2625344.1     -5648.0297      1739.9757     -3908.0539    
    242000   966.47754     -2509882       -5672.1587      1763.9696     -3908.1891    
    242100   1024.5976     -1845815.1     -5778.7735      1870.0476     -3908.7259    
    242200   1055.834      -904582.77     -5835.9761      1927.0589     -3908.9172    
    242300   1029.439       2422.7988     -5787.5386      1878.8839     -3908.6546    
    242400   977.50723      644801.19     -5692.3944      1784.1005     -3908.2939    
    242500   949.72895      896182.32     -5641.5267      1733.4009     -3908.1258    
    242600   970.15304      715172.56     -5678.926       1770.678      -3908.2481    
    242700   1021.2336      131118.17     -5772.4996      1863.9078     -3908.5918    
    242800   1055.1979     -745254.89     -5834.7955      1925.8979     -3908.8976    
    242900   1033.3086     -1700970.3     -5794.7409      1885.9466     -3908.7943    
    243000   974.75894     -2432747       -5687.3564      1779.0844     -3908.272     
    243100   950.4234      -2649868       -5642.6918      1734.6684     -3908.0235    
    243200   992.30626     -2255065.7     -5719.5524      1811.111      -3908.4414    
    243300   1046.1062     -1421327.8     -5818.1876      1909.3041     -3908.8835    
    243400   1049.8142     -460769.44     -5824.9043      1916.0718     -3908.8324    
    243500   1005.1637      344923.01     -5743.0541      1834.5779     -3908.4762    
    243600   959.16539      814930.89     -5658.8053      1750.6238     -3908.1814    
    243700   953.35226      865427.1      -5648.161       1740.014      -3908.147     
    243800   992.6806       488350.93     -5720.186       1811.7942     -3908.3917    
    243900   1042.3935     -251667.11     -5811.2902      1902.528      -3908.7622    
    244000   1052.523      -1198083.8     -5829.9333      1921.0158     -3908.9175    
    244100   1006.6872     -2090094.4     -5745.9314      1837.3583     -3908.5731    
    244200   955.07716     -2610453.6     -5651.2343      1743.1622     -3908.0721    
    244300   963.47714     -2536942.5     -5666.652       1758.4934     -3908.1586    
    244400   1020.7837     -1902759.2     -5771.7813      1863.0867     -3908.6946    
    244500   1055.6001     -969921.46     -5835.5534      1926.632      -3908.9214    
    244600   1032.5882     -52207.123     -5793.3113      1884.6317     -3908.6797    
    244700   980.72305      612998.78     -5698.2841      1789.9699     -3908.3142    
    244800   950.13423      892768.5      -5642.2687      1734.1406     -3908.1281    
    244900   967.40646      740678.78     -5673.8963      1765.665      -3908.2312    
    245000   1017.7375      181265.79     -5766.0927      1857.5269     -3908.5659    
    245100   1054.4567     -680932.04     -5833.4312      1924.5451     -3908.8862    
    245200   1036.545      -1640105.8     -5800.6718      1891.8534     -3908.8184    
    245300   978.45004     -2397103.3     -5694.1296      1785.8213     -3908.3084    
    245400   949.82046     -2654910.5     -5641.5851      1733.5679     -3908.0172    
    245500   988.21653     -2298472       -5712.0493      1803.6466     -3908.4027    
    245600   1043.6614     -1484915.3     -5813.7099      1904.8419     -3908.8679    
    245700   1051.4588     -523092.47     -5827.9233      1919.0734     -3908.8498    
    245800   1008.8029      299868.92     -5749.7216      1841.2199     -3908.5016    
    245900   961.2999       796011.42     -5662.7139      1754.5196     -3908.1942    
    246000   952.14779      875710        -5645.9556      1737.8156     -3908.1399    
    246100   989.15704      526217.48     -5713.7317      1805.3632     -3908.3686    
    246200   1039.7934     -193167.91     -5806.5218      1897.7822     -3908.7395    
    246300   1053.7629     -1132780.5     -5832.2005      1923.2789     -3908.9216    
    246400   1010.819      -2038341.5     -5753.5092      1844.8996     -3908.6096    
    246500   957.13057     -2592774.7     -5655.0034      1746.91       -3908.0934    
    246600   960.72544     -2561377.3     -5661.6016      1753.4712     -3908.1305    
    246700   1016.8493     -1958340.6     -5764.5674      1855.9058     -3908.6615    
    246800   1055.0771     -1035362.7     -5834.6007      1925.6775     -3908.9233    
    246900   1035.5997     -108018        -5798.8324      1890.1281     -3908.7042    
    247000   984.04527      579424.5      -5704.3689      1796.0334     -3908.3354    
    247100   950.77232      887380.36     -5643.4371      1735.3052     -3908.1319    
    247200   964.82251      764317.32     -5669.1644      1760.9489     -3908.2155    
    247300   1014.179       230007.53     -5759.572       1851.032      -3908.54      
    247400   1053.4457     -617086.43     -5831.5727      1922.6999     -3908.8728    
    247500   1039.573      -1578334.3     -5806.2201      1897.38       -3908.8401    
    247600   982.28761     -2359133.7     -5701.1712      1792.8254     -3908.3458    
    247700   949.56241     -2657064.3     -5641.1114      1733.0969     -3908.0144    
    247800   984.20854     -2339756.3     -5704.6957      1796.3314     -3908.3643    
    247900   1040.9721     -1547848.4     -5808.7835      1899.9336     -3908.8499    
    248000   1052.856      -586083.33     -5830.4892      1921.6235     -3908.8657    
    248100   1012.4225      253301.98     -5756.3535      1847.8261     -3908.5273    
    248200   963.62218      775184.52     -5666.9664      1758.7582     -3908.2082    
    248300   951.1681       884030.14     -5644.1617      1736.0275     -3908.1342    
    248400   985.70318      562380.55     -5707.4055      1799.0594     -3908.3461    
    248500   1037.0164     -135704.52     -5801.4299      1892.7139     -3908.716     
    248600   1054.7163     -1067353.2     -5833.9421      1925.0188     -3908.9233    
    248700   1014.8897     -1984976.1     -5760.9741      1852.3293     -3908.6448    
    248800   959.47705     -2572346.6     -5659.3103      1751.1926     -3908.1176    
    248900   958.24162     -2583132.6     -5657.0427      1748.9378     -3908.1049    
    249000   1012.8175     -2012458       -5757.1741      1848.5471     -3908.627     
    249100   1054.2648     -1100816.9     -5833.1176      1924.1948     -3908.9228    
    249200   1038.4575     -164953.22     -5804.0721      1895.344      -3908.7281    
    249300   987.45953      544104.49     -5710.6225      1802.265      -3908.3575    
    249400   951.64068      880021.53     -5645.027       1736.8901     -3908.1369    
    249500   962.41187      786071.05     -5664.7501      1756.5492     -3908.2009    
    249600   1010.5752      277298.84     -5752.9689      1844.4547     -3908.5142    
    249700   1052.1731     -553796.32     -5829.235       1920.3772     -3908.8578    
    249800   1042.3769     -1515757.8     -5811.357       1902.4976     -3908.8594    
    249900   986.24603     -2318917.4     -5708.434       1800.0501     -3908.3839    
    250000   949.65109     -2656324.4     -5641.2742      1733.2588     -3908.0154    
    250100   980.30868     -2378833.9     -5697.5401      1789.2136     -3908.3265    
    250200   1038.0517     -1610026       -5803.4328      1894.6035     -3908.8293    
    250300   1053.9959     -649667.11     -5832.5839      1923.704      -3908.8799    
    250400   1016.0052      205263.61     -5762.9184      1854.3652     -3908.5532    
    250500   966.12272      752465.02     -5671.5454      1763.322      -3908.2234    
    250600   950.4171       890381.86     -5642.7867      1734.6569     -3908.1298    
    250700   982.33415      596811.31     -5701.2348      1792.9104     -3908.3245    
    250800   1034.0781     -79336.983     -5796.0427      1887.3509     -3908.6917    
    250900   1055.3807     -1001894.3     -5835.1542      1926.2316     -3908.9226    
    251000   1018.8747     -1930097.5     -5768.2811      1859.6024     -3908.6786    
    251100   962.10013     -2549214.9     -5664.1247      1755.9802     -3908.1446    
    251200   956.04305     -2602160.3     -5653.0073      1744.9251     -3908.0822    
    251300   1008.7124     -2065011.2     -5749.6458      1841.0547     -3908.591     
    251400   1053.1646     -1166192.4     -5831.1065      1922.1867     -3908.9198    
    251500   1041.1459     -222953.87     -5809.0021      1900.2508     -3908.7513    
    251600   990.95095      507066.7      -5717.0177      1808.6373     -3908.3803    
    251700   952.73586      870697.01     -5647.0323      1738.8889     -3908.1434    
    251800   960.18446      805924.41     -5660.6713      1752.4838     -3908.1875    
    251900   1006.9435      323097.28     -5746.3149      1837.8262     -3908.4886    
    252000   1050.6481     -491137.72     -5826.435       1917.5939     -3908.8411    
    252100   1044.9427     -1452477.5     -5816.0569      1907.1806     -3908.8762    
    252200   990.29912     -2276537.4     -5715.8701      1807.4477     -3908.4225    
    252300   950.08588     -2652692.5     -5642.0723      1734.0523     -3908.02      
    252400   976.54284     -2415623.9     -5690.6299      1782.3403     -3908.2896    
    252500   1034.9152     -1671346.5     -5797.6851      1888.8787     -3908.8064    
    252600   1054.8698     -713766.65     -5834.1914      1925.2991     -3908.8923    
    252700   1019.534       155797.32     -5769.3849      1860.8058     -3908.5791    
    252800   968.79121      727869.28     -5676.4321      1768.1924     -3908.2397    
    252900   949.89779      894760.87     -5641.8358      1733.709      -3908.1268    
    253000   979.06458      629482.77     -5695.2466      1786.9429     -3908.3037    
    253100   1030.9941     -24123.017     -5790.3892      1881.7223     -3908.6669    
    253200   1055.7558     -936494.44     -5835.8356      1926.9161     -3908.9195    
    253300   1022.7503     -1873806.7     -5775.3868      1866.676      -3908.7108    
    253400   964.98149     -2523430.5     -5669.413       1761.2391     -3908.1739    
    253500   954.14522     -2618418       -5649.5237      1741.4613     -3908.0624    
    253600   1004.559      -2115901.4     -5742.0282      1833.4742     -3908.5541    
    253700   1051.7795     -1231396.1     -5828.5731      1919.6588     -3908.9144    
    253800   1043.65       -281958.78     -5813.5946      1904.8211     -3908.7735    
    253900   994.50415      468340.85     -5723.5263      1815.1225     -3908.4038    
    254000   954.05345      859413.13     -5649.4449      1741.2938     -3908.1511    
    254100   958.14938      823863.33     -5656.9448      1748.7695     -3908.1754    
    254200   1003.3009      367362.49     -5739.6412      1831.1779     -3908.4634    
    254300   1048.8812     -429184.37     -5823.192       1914.369      -3908.823     
    254400   1047.2581     -1388594.1     -5820.2969      1911.4064     -3908.8905    
    254500   994.42039     -2232079.8     -5723.4308      1814.9696     -3908.4612    
    254600   950.86365     -2646176.9     -5643.5         1735.4719     -3908.0281    
    254700   972.9363      -2450048.9     -5684.0117      1775.7578     -3908.2539    
    254800   1031.5789     -1731707.6     -5791.5706      1882.7895     -3908.7811    
    254900   1055.4704     -778302.57     -5835.298       1926.3953     -3908.9027    
    255000   1022.9915      104948.76     -5775.7213      1867.1163     -3908.605     
    255100   971.61657      701415.2      -5681.6062      1773.3491     -3908.2571    
    255200   949.61224      897164.23     -5641.313       1733.1879     -3908.1251    
    255300   975.90851      660369.67     -5689.4664      1781.1826     -3908.2838    
    255400   1027.7809      29881.925     -5784.4994      1875.8577     -3908.6417    
    255500   1055.8425     -871242.21     -5835.9884      1927.0743     -3908.9141    
    255600   1026.4939     -1816205.1     -5782.2499      1873.5087     -3908.7412    
    255700   968.10113     -2495049.9     -5675.1384      1766.9329     -3908.2055    
    255800   952.56154     -2631869.3     -5646.6167      1738.5708     -3908.0459    
    255900   1000.383      -2165031.3     -5734.3685      1825.8523     -3908.5162    
    256000   1050.1144     -1296333       -5825.526       1916.6197     -3908.9064    
    256100   1045.9553     -341904.41     -5817.8233      1909.0286     -3908.7947    
    256200   998.10331      427958.58     -5730.1194      1821.6915     -3908.4279    
    256300   955.58819      846177.62     -5652.2551      1744.0949     -3908.1602    
    256400   956.31491      839875.22     -5653.5857      1745.4213     -3908.1645    
    256500   999.66426      410056.15     -5732.979       1824.5405     -3908.4385    
    256600   1046.8839     -368007.71     -5819.527       1910.7235     -3908.8035    
    256700   1049.3121     -1324207       -5824.0576      1915.1555     -3908.9021    
    256800   998.58318     -2185634       -5731.0671      1822.5673     -3908.4997    
    256900   951.97888     -2636792.3     -5645.5471      1737.5073     -3908.0398    
    257000   969.51347     -2482036       -5677.7303      1769.5106     -3908.2197    
    257100   1028.0609     -1791006.9     -5785.1224      1876.3687     -3908.7537    
    257200   1055.7915     -843193.27     -5835.8925      1926.9813     -3908.9112    
    257300   1026.3607      52765.747     -5781.8962      1873.2656     -3908.6307    
    257400   974.58699      673122.29     -5687.0462      1778.7706     -3908.2756    
    257500   949.56157      897590.3      -5641.2202      1733.0954     -3908.1248    
    257600   972.87941      689448.48     -5683.9189      1775.654      -3908.2649    
    257700   1024.4551      82624.65      -5778.4036      1869.7875     -3908.6161    
    257800   1055.6434     -806224.32     -5835.6175      1926.7109     -3908.9066    
    257900   1030.0842     -1757395       -5788.8311      1880.0615     -3908.7695    
    258000   971.43753     -2464134.7     -5681.2613      1773.0224     -3908.239     
    258100   951.30322     -2642483.9     -5644.3069      1736.2742     -3908.0327    
    258200   996.21054     -2212305.5     -5726.7147      1818.2369     -3908.4778    
    258300   1048.1757     -1360906.6     -5821.9771      1913.0813     -3908.8958    
    258400   1048.0482     -402724.96     -5821.6632      1912.8485     -3908.8147    
    258500   1001.7322      385953.39     -5736.7674      1828.3148     -3908.4526    
    258600   957.33389      830999.57     -5655.4516      1747.2811     -3908.1705    
    258700   954.68846      853948.95     -5650.6076      1742.4527     -3908.1549    
    258800   996.05028      451141.93     -5726.3586      1817.9444     -3908.4142    
    258900   1044.6685     -307676.88     -5815.4628      1906.6801     -3908.7828    
    259000   1051.096      -1259414.7     -5827.3225      1918.4113     -3908.9112    
    259100   1002.7609     -2137292.2     -5738.7302      1830.1923     -3908.5378    
    259200   953.42361     -2624559.9     -5648.1991      1740.1442     -3908.0549    
    259300   966.2977      -2511516.6     -5671.8287      1763.6414     -3908.1873    
    259400   1024.3808     -1849141.8     -5778.3761      1869.652      -3908.7241    
    259500   1055.8284     -908355.03     -5835.9661      1927.0486     -3908.9175    
    259600   1029.6245     -701.7156      -5787.8786      1879.2225     -3908.6561    
    259700   977.68996      643011.68     -5692.729       1784.434      -3908.295     
    259800   949.746        896038.81     -5641.5579      1733.432      -3908.1259    
    259900   969.99005      716697.37     -5678.6276      1770.3805     -3908.2471    
    260000   1021.0335      134054.19     -5772.1329      1863.5427     -3908.5903    
    260100   1055.1625     -741525.4      -5834.7303      1925.8333     -3908.897     
    260200   1033.5011     -1697478.8     -5795.0936      1886.2978     -3908.7958    
    260300   974.96785     -2430751.4     -5687.7398      1779.4657     -3908.2741    
    260400   950.37922     -2650237.9     -5642.6108      1734.5877     -3908.023     
    260500   992.06811     -2257630.8     -5719.1155      1810.6763     -3908.4392    
    260600   1045.9718     -1425019.2     -5817.9414      1909.0588     -3908.8827    
    260700   1049.9158     -464352.27     -5825.0908      1916.2573     -3908.8335    
    260800   1005.3743      342360.76     -5743.4399      1834.9622     -3908.4777    
    260900   959.28349      813889.52     -5659.0215      1750.8394     -3908.1822    
    261000   953.2766       866074.78     -5648.0224      1739.8759     -3908.1465    
    261100   992.47531      490585.49     -5719.8099      1811.4195     -3908.3904    
    261200   1042.2483     -248258.71     -5811.0239      1902.2629     -3908.761     
    261300   1052.6024     -1194314.3     -5830.0785      1921.1608     -3908.9178    
    261400   1006.9272     -2087148.7     -5746.3717      1837.7965     -3908.5752    
    261500   955.1876      -2609507.4     -5651.437       1743.3638     -3908.0733    
    261600   963.31112     -2538426.9     -5666.3474      1758.1904     -3908.1569    
    261700   1020.5594     -1906009.9     -5771.37        1862.6773     -3908.6927    
    261800   1055.5778     -973702.06     -5835.5128      1926.5912     -3908.9215    
    261900   1032.7661     -55401.399     -5793.6376      1884.9565     -3908.6811    
    262000   980.91231      611106.17     -5698.6307      1790.3153     -3908.3154    
    262100   950.16479      892510.79     -5642.3247      1734.1964     -3908.1283    
    262200   967.25257      742096.13     -5673.6145      1765.3842     -3908.2303    
    262300   1017.5333      184121.81     -5765.7186      1857.1543     -3908.5644    
    262400   1054.4055     -677227.97     -5833.3371      1924.4517     -3908.8854    
    262500   1036.7258     -1636559.1     -5801.0032      1892.1835     -3908.8197    
    262600   978.66811     -2394971.3     -5694.5298      1786.2193     -3908.3105    
    262700   949.79612     -2655113.8     -5641.5404      1733.5235     -3908.0169    
    262800   987.98238     -2300916.8     -5711.6197      1803.2193     -3908.4005    
    262900   1043.5124     -1488571.7     -5813.4371      1904.5701     -3908.867     
    263000   1051.5464     -526715.9      -5828.0841      1919.2333     -3908.8508    
    263100   1009.0128      297218.14     -5750.1062      1841.603      -3908.5031    
    263200   961.4291       794859.42     -5662.9505      1754.7554     -3908.195     
    263300   952.085        876244.42     -5645.8406      1737.701      -3908.1395    
    263400   988.95536      528354.4      -5713.3623      1804.9951     -3908.3672    
    263500   1039.6375     -189817.7      -5806.236       1897.4978     -3908.7382    
    263600   1053.8259     -1129001.2     -5832.3155      1923.3937     -3908.9218    
    263700   1011.0562     -2035300       -5753.9442      1845.3325     -3908.6116    
    263800   957.25836     -2591668.4     -5655.238       1747.1432     -3908.0948    
    263900   960.57441     -2562708.2     -5661.3244      1753.1955     -3908.1289    
    264000   1016.6187     -1961509.4     -5764.1445      1855.4849     -3908.6596    
    264100   1055.0381     -1039146.5     -5834.5294      1925.6061     -3908.9233    
    264200   1035.7692     -111278.83     -5799.1432      1890.4375     -3908.7056    
    264300   984.24025      577430.26     -5704.726       1796.3893     -3908.3367    
    264400   950.81627      887008.63     -5643.5175      1735.3854     -3908.1321    
    264500   964.67836      765626.17     -5668.9005      1760.6858     -3908.2146    
    264600   1013.9717      232780.91     -5759.1923      1850.6538     -3908.5385    
    264700   1053.3792     -613412.36     -5831.4505      1922.5785     -3908.872     
    264800   1039.7413     -1574738.3     -5806.5285      1897.6872     -3908.8413    
    264900   982.51337     -2356869.6     -5701.5854      1793.2375     -3908.3479    
    265000   949.55809     -2657100.3     -5641.1034      1733.089      -3908.0144    
    265100   983.97993     -2342075.9     -5704.2763      1795.9142     -3908.3621    
    265200   1040.8095     -1551463.8     -5808.4855      1899.6368     -3908.8488    
    265300   1052.929      -589743.09     -5830.6232      1921.7567     -3908.8666    
    265400   1012.6307      250565        -5756.735       1848.2062     -3908.5288    
    265500   963.76196      773922.71     -5667.2223      1759.0133     -3908.2091    
    265600   951.11843      884450.92     -5644.0708      1735.9369     -3908.1339    
    265700   985.50599      564418.1      -5707.0443      1798.6995     -3908.3449    
    265800   1036.8508     -132416.04     -5801.1263      1892.4117     -3908.7146    
    265900   1054.7625     -1063569.6     -5834.0266      1925.1033     -3908.9234    
    266000   1015.1226     -1981844.3     -5761.4011      1852.7543     -3908.6468    
    266100   959.6213      -2571082.8     -5659.5751      1751.4559     -3908.1191    
    266200   958.10661     -2584307.1     -5656.7949      1748.6914     -3908.1035    
    266300   1012.582      -2015539.1     -5756.7422      1848.1173     -3908.6249    
    266400   1054.209      -1104598.6     -5833.0157      1924.093      -3908.9227    
    266500   1038.6176     -168277.25     -5804.3658      1895.6363     -3908.7295    
    266600   987.65938      542010.19     -5710.9885      1802.6297     -3908.3588    
    266700   951.69785      879536.04     -5645.1317      1736.9944     -3908.1373    
    266800   962.27805      787270.47     -5664.505       1756.3049     -3908.2001    
    266900   1010.3659      279987.06     -5752.5853      1844.0726     -3908.5127    
    267000   1052.0918     -550156.7      -5829.0855      1920.2287     -3908.8569    
    267100   1042.5318     -1512118.3     -5811.6408      1902.7803     -3908.8605    
    267200   986.47797     -2316525.9     -5708.8596      1800.4735     -3908.3861    
    267300   949.66682     -2656193.2     -5641.303       1733.2875     -3908.0155    
    267400   980.08711     -2381023.5     -5697.1335      1788.8092     -3908.3244    
    267500   1037.8762     -1613594.7     -5803.1111      1894.2831     -3908.8281    
    267600   1054.0537     -653358.81     -5832.6902      1923.8096     -3908.8806    
    267700   1016.2108      202442.88     -5763.2952      1854.7405     -3908.5547    
    267800   966.27249      751094.3      -5671.8197      1763.5954     -3908.2243    
    267900   950.38075      890688.72     -5642.7201      1734.5905     -3908.1296    
    268000   982.14232      598747.9      -5700.8835      1792.5602     -3908.3233    
    268100   1033.9036     -76113.63      -5795.7229      1887.0325     -3908.6903    
    268200   1055.4103     -998111.71     -5835.208       1926.2855     -3908.9225    
    268300   1019.1019     -1926881.4     -5768.6977      1860.0171     -3908.6806    
    268400   962.25982     -2547796.3     -5664.4178      1756.2716     -3908.1462    
    268500   955.92503     -2603175.8     -5652.7906      1744.7097     -3908.0809    
    268600   1008.4734     -2067998.9     -5749.2075      1840.6185     -3908.5889    
    268700   1053.0922     -1169966.8     -5830.9743      1922.0547     -3908.9196    
    268800   1041.2958     -226337.65     -5809.277       1900.5244     -3908.7526    
    268900   991.1548       504873.99     -5717.3911      1809.0094     -3908.3817    
    269000   952.806        870098.08     -5647.1607      1739.017      -3908.1438    
    269100   960.06152      807013.55     -5660.4462      1752.2594     -3908.1868    
    269200   1006.7331      325697.96     -5745.9294      1837.4422     -3908.4871    
    269300   1050.5525     -487536.88     -5826.2594      1917.4193     -3908.8401    
    269400   1045.0835     -1448800.5     -5816.3147      1907.4376     -3908.8771    
    269500   990.53574     -2274023.4     -5716.3042      1807.8795     -3908.4247    
    269600   950.12153     -2652394.3     -5642.1377      1734.1174     -3908.0203    
    269700   976.3298      -2417678.8     -5690.239       1781.9515     -3908.2875    
    269800   1034.7276     -1674862.5     -5797.3414      1888.5364     -3908.805     
    269900   1054.9121     -717485.76     -5834.2691      1925.3762     -3908.8929    
    270000   1019.7359      152895.43     -5769.755       1861.1744     -3908.5806    
    270100   968.95036      726390.64     -5676.7236      1768.4829     -3908.2407    
    270200   949.87491      894953.61     -5641.7939      1733.6673     -3908.1266    
    270300   978.87893      631316.88     -5694.9066      1786.6041     -3908.3025    
    270400   1030.8118     -20968.058     -5790.0549      1881.3894     -3908.6655    
    270500   1055.7686     -932717.96     -5835.8588      1926.9395     -3908.9193    
    270600   1022.9705     -1870512       -5775.7905      1867.0779     -3908.7126    
    270700   965.15552     -2521860.2     -5669.7324      1761.5567     -3908.1757    
    270800   954.04501     -2619272.2     -5649.3397      1741.2784     -3908.0614    
    270900   1004.318      -2118790       -5741.5862      1833.0343     -3908.5519    
    271000   1051.6908     -1235157.7     -5828.4109      1919.4969     -3908.914     
    271100   1043.7888     -285398.67     -5813.8492      1905.0744     -3908.7747    
    271200   994.71109      466051.53     -5723.9054      1815.5002     -3908.4052    
    271300   954.1363       858701.17     -5649.5966      1741.445      -3908.1516    
    271400   958.03781      824841.41     -5656.7405      1748.5658     -3908.1747    
    271500   1003.0904      369873.36     -5739.2556      1830.7937     -3908.4619    
    271600   1048.7719     -425626.5      -5822.9914      1914.1695     -3908.8219    
    271700   1047.384      -1384885.2     -5820.5275      1911.6363     -3908.8912    
    271800   994.66013     -2229448.5     -5723.8706      1815.4072     -3908.4634    
    271900   950.91899     -2645712.4     -5643.6016      1735.5729     -3908.0287    
    272000   972.73322     -2451964.9     -5683.6391      1775.3872     -3908.2519    
    272100   1031.3803     -1735165       -5791.2067      1882.4271     -3908.7796    
    272200   1055.4966     -782044.42     -5835.3464      1926.4431     -3908.9033    
    272300   1023.1888      101968.42     -5776.0829      1867.4764     -3908.6065    
    272400   971.78443      699829.73     -5681.9137      1773.6555     -3908.2582    
    272500   949.60291      897242.7      -5641.2959      1733.1708     -3908.125     
    272600   975.72985      662099.89     -5689.1392      1780.8565     -3908.2827    
    272700   1027.5916      32965.354     -5784.1523      1875.5121     -3908.6402    
    272800   1055.8387     -867476.93     -5835.9812      1927.0674     -3908.9138    
    272900   1026.7058     -1812837.7     -5782.6383      1873.8954     -3908.7429    
    273000   968.28829     -2493331.4     -5675.4819      1767.2745     -3908.2074    
    273100   952.47985     -2632560.3     -5646.4667      1738.4217     -3908.0451    
    273200   1000.1415     -2167815.2     -5733.9255      1825.4115     -3908.514     
    273300   1050.0097     -1300076.2     -5825.3344      1916.4286     -3908.9058    
    273400   1046.0821     -345396.7      -5818.0561      1909.2602     -3908.7959    
    273500   998.31241      425574.51     -5730.5025      1822.0731     -3908.4294    
    273600   955.68341      845353.12     -5652.4294      1744.2687     -3908.1607    
    273700   956.21517      840741.57     -5653.4031      1745.2392     -3908.1639    
    273800   999.45459      412475.05     -5732.5949      1824.1578     -3908.4371    
    273900   1046.7616     -364496.87     -5819.3027      1910.5004     -3908.8023    
    274000   1049.4227     -1320472.1     -5824.2599      1915.3572     -3908.9027    
    274100   998.8245      -2182890.6     -5731.5097      1823.0078     -3908.502     
    274200   952.0535      -2636162.6     -5645.6841      1737.6435     -3908.0406    
    274300   969.32174     -2483808.9     -5677.3785      1769.1607     -3908.2178    
    274400   1027.8524     -1794399.8     -5784.7402      1875.9882     -3908.752     
    274500   1055.8014     -846953.09     -5835.911       1926.9994     -3908.9116    
    274600   1026.5524      49709.782     -5782.2475      1873.6154     -3908.6321    
    274700   974.76286      671431.16     -5687.3683      1779.0916     -3908.2767    
    274800   949.56584      897554.47     -5641.228       1733.1032     -3908.1248    
    274900   972.70848      691073.51     -5683.6059      1775.342      -3908.2639    
    275000   1024.2598      85633.542     -5778.0456      1869.431      -3908.6146    
    275100   1055.6232     -802475.2      -5835.5802      1926.6741     -3908.9061    
    275200   1030.2866     -1753960.9     -5789.2021      1880.431      -3908.7711    
    275300   971.63653     -2462271.7     -5681.6265      1773.3856     -3908.2409    
    275400   951.24063     -2643010.2     -5644.192       1736.1599     -3908.0321    
    275500   995.97003     -2214979.2     -5726.2735      1817.7979     -3908.4756    
    275600   1048.0555     -1364625.9     -5821.757       1912.8618     -3908.8951    
    275700   1048.1624     -406265.75     -5821.8728      1913.0569     -3908.8158    
    275800   1001.9425      383476.59     -5737.1527      1828.6987     -3908.454     
    275900   957.44109      830063.1      -5655.6479      1747.4767     -3908.1712    
    276000   954.60095      854702.95     -5650.4474      1742.293      -3908.1543    
    276100   995.84243      453466.83     -5725.9778      1817.565      -3908.4128    
    276200   1044.534      -304217        -5815.2162      1906.4347     -3908.7815    
    276300   1051.1907     -1255659.3     -5827.4958      1918.5841     -3908.9117    
    276400   1003.0023     -2134442       -5739.1729      1830.6329     -3908.54      
    276500   953.51699     -2623766.4     -5648.3705      1740.3146     -3908.0559    
    276600   966.11863     -2513142.6     -5671.5         1763.3146     -3908.1855    
    276700   1024.1636     -1852464.3     -5777.9778      1869.2555     -3908.7224    
    276800   1055.8217     -912127.92     -5835.9542      1927.0365     -3908.9178    
    276900   1029.8096     -3830.3473     -5788.2178      1879.5603     -3908.6576    
    277000   977.87309      641216.17     -5693.0644      1784.7683     -3908.2962    
    277100   949.76384      895888.69     -5641.5905      1733.4646     -3908.126     
    277200   969.82758      718216        -5678.33        1770.084      -3908.2461    
    277300   1020.8332      136985.67     -5771.7658      1863.177      -3908.5888    
    277400   1055.1262     -737797.26     -5834.6635      1925.7671     -3908.8964    
    277500   1033.6929     -1693983.9     -5795.4451      1886.6479     -3908.7972    
    277600   975.17734     -2428747.9     -5688.1242      1779.8481     -3908.2761    
    277700   950.33618     -2650598.3     -5642.5318      1734.5092     -3908.0226    
    277800   991.83016     -2260189.2     -5718.679       1810.242      -3908.4369    
    277900   1045.8365     -1428708.8     -5817.6936      1908.8118     -3908.8818    
    278000   1050.0166     -467937.56     -5825.2758      1916.4413     -3908.8345    
    278100   1005.5849      339793.33     -5743.8257      1835.3465     -3908.4791    
    278200   959.40225      812841.73     -5659.239       1751.0561     -3908.1829    
    278300   953.20168      866715.93     -5647.8852      1739.7391     -3908.1461    
    278400   992.27021      492814.46     -5719.4342      1811.0452     -3908.389     
    278500   1042.1025     -244853.57     -5810.7564      1901.9967     -3908.7597    
    278600   1052.6809     -1190544       -5830.2221      1921.304      -3908.9181    
    278700   1007.1671     -2084197.3     -5746.8117      1838.2344     -3908.5774    
    278800   955.29907     -2608551.8     -5651.6416      1743.5672     -3908.0744    
    278900   963.14595     -2539902.5     -5666.0442      1757.889      -3908.1552    
    279000   1020.3346     -1909256       -5770.9579      1862.2671     -3908.6909    
    279100   1055.5545     -977482.98     -5835.4704      1926.5487     -3908.9217    
    279200   1032.9437     -58599.61      -5793.963       1885.2805     -3908.6826    
    279300   981.10193      609207.65     -5698.978       1790.6614     -3908.3166    
    279400   950.19613      892246.49     -5642.3821      1734.2536     -3908.1285    
    279500   967.09923      743507.24     -5673.3337      1765.1043     -3908.2294    
    279600   1017.329       186973.12     -5765.3442      1856.7813     -3908.5629    
    279700   1054.3535     -673525.51     -5833.2414      1924.3567     -3908.8847    
    279800   1036.906      -1633009.4     -5801.3333      1892.5123     -3908.821     
    279900   978.88666     -2392831.4     -5694.9308      1786.6182     -3908.3126    
    280000   949.77294     -2655307.3     -5641.4978      1733.4812     -3908.0167    
    280100   987.74851     -2303354.6     -5711.1907      1802.7924     -3908.3983    
    280200   1043.3627     -1492225.8     -5813.1629      1904.2969     -3908.866     
    280300   1051.6332     -530341.55     -5828.2434      1919.3917     -3908.8517    
    280400   1009.2227      294562.3      -5750.4906      1841.986      -3908.5046    
    280500   961.55893      793701.05     -5663.1882      1754.9924     -3908.1958    
    280600   952.02297      876772.27     -5645.727       1737.5878     -3908.1392    
    280700   988.75391      530485.62     -5712.9933      1804.6274     -3908.3659    
    280800   1039.4811     -186470.96     -5805.9492      1897.2123     -3908.7368    
    280900   1053.8879     -1125221.6     -5832.4288      1923.5069     -3908.922     
    281000   1011.2932     -2032253       -5754.3788      1845.7651     -3908.6137    
    281100   957.38714     -2590552.9     -5655.4743      1747.3782     -3908.0961    
    281200   960.42427     -2564030.1     -5661.0489      1752.9215     -3908.1274    
    281300   1016.3878     -1964673.3     -5763.721       1855.0634     -3908.6576    
    281400   1054.998      -1042930.3     -5834.4564      1925.533      -3908.9233    
    281500   1035.9382     -114543.4      -5799.453       1890.746      -3908.707     
    281600   984.43553      575430.19     -5705.0837      1796.7457     -3908.338     
    281700   950.86099      886630.33     -5643.5994      1735.467      -3908.1324    
    281800   964.53478      766928.73     -5668.6375      1760.4238     -3908.2138    
    281900   1013.7643      235549.43     -5758.8123      1850.2753     -3908.537     
    282000   1053.3118     -609740.16     -5831.3267      1922.4555     -3908.8712    
    282100   1039.9088     -1571139.6     -5806.8355      1897.993      -3908.8425    
    282200   982.73952     -2354598       -5702.0004      1793.6502     -3908.3501    
    282300   949.55493     -2657126.7     -5641.0976      1733.0833     -3908.0144    
    282400   983.75169     -2344388.1     -5703.8575      1795.4976     -3908.3599    
    282500   1040.6461     -1555076.7     -5808.1862      1899.3385     -3908.8476    
    282600   1053.0011     -593404.82     -5830.7557      1921.8883     -3908.8674    
    282700   1012.8388      247823.1      -5757.1164      1848.5861     -3908.5303    
    282800   963.90232      772654.57     -5667.4794      1759.2695     -3908.2099    
    282900   951.06953      884865.12     -5643.9812      1735.8476     -3908.1336    
    283000   985.30909      566449.87     -5706.6837      1798.3401     -3908.3436    
    283100   1036.6847     -129131.24     -5800.8217      1892.1085     -3908.7132    
    283200   1054.8079     -1059786       -5834.1094      1925.186      -3908.9234    
    283300   1015.3552     -1978707.5     -5761.8277      1853.1789     -3908.6488    
    283400   959.76647     -2569809.9     -5659.8415      1751.7209     -3908.1206    
    283500   957.97257     -2585472.5     -5656.5489      1748.4467     -3908.1021    
    283600   1012.3462     -2018615       -5756.3099      1847.687      -3908.6229    
    283700   1054.1523     -1108380.1     -5832.912       1923.9895     -3908.9226    
    283800   1038.7772     -171604.84     -5804.6584      1895.9276     -3908.7308    
    283900   987.85949      539910.15     -5711.3551      1802.9949     -3908.3601    
    284000   951.75577      879043.98     -5645.2378      1737.1001     -3908.1376    
    284100   962.14484      788463.55     -5664.2611      1756.0618     -3908.1993    
    284200   1010.1565      282670.29     -5752.2017      1843.6904     -3908.5112    
    284300   1052.0095     -546519.21     -5828.9346      1920.0786     -3908.8559    
    284400   1042.6859     -1508476.6     -5811.9231      1903.0616     -3908.8615    
    284500   986.71023     -2314127.2     -5709.2857      1800.8974     -3908.3883    
    284600   949.6837      -2656052.3     -5641.334       1733.3183     -3908.0157    
    284700   979.866       -2383205.3     -5696.7278      1788.4056     -3908.3222    
    284800   1037.6999     -1617160.5     -5802.7881      1893.9613     -3908.8268    
    284900   1054.1107     -657052.21     -5832.7949      1923.9135     -3908.8814    
    285000   1016.4162      199617.4      -5763.6716      1855.1154     -3908.5562    
    285100   966.42282      749717.31     -5672.095       1763.8698     -3908.2252    
[...]
    684000   1044.7012     -308523.12     -5815.5229      1906.7398     -3908.7831    
    684100   996.10111      450572.77     -5726.4517      1818.0372     -3908.4145    
    684200   954.70996      853763.64     -5650.647       1742.492      -3908.155     
    684300   957.30778      831227.51     -5655.4038      1747.2334     -3908.1704    
    684400   1001.6808      386558.04     -5736.6732      1828.221      -3908.4522    
    684500   1048.0201     -401859.82     -5821.6118      1912.7973     -3908.8145    
    684600   1048.205      -1359997.2     -5822.0307      1913.1347     -3908.896     
    684700   996.26935     -2211650.9     -5726.8226      1818.3442     -3908.4784    
    684800   951.31869     -2642353.8     -5644.3353      1736.3024     -3908.0329    
    684900   971.38899     -2464588.9     -5681.1722      1772.9338     -3908.2385    
    685000   1030.0346     -1758233.9     -5788.7402      1879.9711     -3908.7692    
    685100   1055.6481     -807140.96     -5835.6264      1926.7196     -3908.9067    
    685200   1024.5028      81888.453     -5778.491       1869.8746     -3908.6164    
    685300   972.92126      689050.31     -5683.9956      1775.7304     -3908.2652    
    685400   949.56065      897598.05     -5641.2185      1733.0937     -3908.1248    
    685500   974.54406      673534.76     -5686.9676      1778.6923     -3908.2753    
    685600   1026.3138      53512.131     -5781.8102      1873.1799     -3908.6303    
    685700   1055.7889     -842274.31     -5835.8877      1926.9766     -3908.9111    
    685800   1028.1118     -1790176.9     -5785.2157      1876.4616     -3908.7541    
    685900   969.56044     -2481601.3     -5677.8165      1769.5964     -3908.2202    
    686000   951.9608      -2636944.8     -5645.514       1737.4744     -3908.0396    
    686100   998.52419     -2186303.7     -5730.9589      1822.4597     -3908.4992    
    686200   1049.285      -1325119.8     -5824.0079      1915.1059     -3908.902     
    686300   1046.9136     -368866.37     -5819.5816      1910.7778     -3908.8038    
    686400   999.71553      409464.02     -5733.0729      1824.634      -3908.4389    
    686500   956.3394       839662.46     -5653.6306      1745.466      -3908.1646    
    686600   955.56502      846378.18     -5652.2126      1744.0526     -3908.16      
    686700   998.05221      428540.54     -5730.0258      1821.5982     -3908.4276    
    686800   1045.9241     -341051.16     -5817.7662      1908.9718     -3908.7944    
    686900   1050.1398     -1295417.8     -5825.5726      1916.6661     -3908.9065    
    687000   1000.4421     -2164349.8     -5734.4768      1825.9601     -3908.5168    
    687100   952.58167     -2631698.9     -5646.6536      1738.6075     -3908.0461    
    687200   968.05549     -2495468.7     -5675.0546      1766.8496     -3908.205     
    687300   1026.442      -1817027.6     -5782.1548      1873.414      -3908.7408    
    687400   1055.8432     -872162.75     -5835.9899      1927.0757     -3908.9142    
    687500   1027.8271      29127.534     -5784.5841      1875.9421     -3908.642     
    687600   975.95225      659945.79     -5689.5465      1781.2624     -3908.2841    
    687700   949.61464      897144.04     -5641.3174      1733.1922     -3908.1251    
    687800   971.57561      701801.83     -5681.5312      1773.2744     -3908.2569    
    687900   1022.9432      105676.63     -5775.6328      1867.0282     -3908.6046    
    688000   1055.4639     -777388.04     -5835.2859      1926.3833     -3908.9026    
    688100   1031.6273     -1730861.9     -5791.6594      1882.8779     -3908.7815    
    688200   972.98603     -2449579.3     -5684.103       1775.8486     -3908.2544    
    688300   950.8503      -2646289       -5643.4755      1735.4475     -3908.028     
    688400   994.36181     -2232722       -5723.3233      1814.8627     -3908.4606    
    688500   1047.2271     -1389500.4     -5820.2403      1911.35       -3908.8903    
    688600   1048.9078     -430054.49     -5823.2408      1914.4175     -3908.8232    
    688700   1003.3524      366747.91     -5739.7355      1831.2718     -3908.4637    
    688800   958.17676      823623.26     -5656.995       1748.8194     -3908.1755    
    688900   954.03331      859586.18     -5649.408       1741.257      -3908.151     
    689000   994.45359      468899.64     -5723.4337      1815.0302     -3908.4035    
    689100   1043.6159     -281118.37     -5813.5322      1904.759      -3908.7732    
    689200   1051.801      -1230476.4     -5828.6125      1919.6981     -3908.9145    
    689300   1004.6179     -2115194.4     -5742.1363      1833.5817     -3908.5546    
    689400   954.16988     -2618207.7     -5649.569       1741.5063     -3908.0627    
    689500   964.93907     -2523813.1     -5669.3352      1761.1617     -3908.1735    
    689600   1022.6964     -1874611.4     -5775.288       1866.5776     -3908.7104    
    689700   1055.7525     -937417.68     -5835.8297      1926.9101     -3908.9196    
    689800   1031.0386     -24894.867     -5790.4708      1881.8035     -3908.6673    
    689900   979.11002      629033.51     -5695.3298      1787.0258     -3908.304     
    690000   949.90351      894712.76     -5641.8463      1733.7195     -3908.1268    
    690100   968.75239      728229.79     -5676.361       1768.1216     -3908.2395    
    690200   1019.4846      156505.99     -5769.2943      1860.7156     -3908.5787    
    690300   1054.8594     -712857.73     -5834.1721      1925.28       -3908.8921    
    690400   1034.9609     -1670486.5     -5797.769       1888.9622     -3908.8067    
    690500   976.595       -2415120.3     -5690.7257      1782.4355     -3908.2901    
    690600   950.07733     -2652764       -5642.0566      1734.0367     -3908.0199    
    690700   990.24132     -2277150.8     -5715.7641      1807.3422     -3908.4219    
    690800   1044.9082     -1453376       -5815.9936      1907.1176     -3908.876     
    690900   1050.6714     -492018.31     -5826.4777      1917.6363     -3908.8414    
    691000   1006.995       322460.76     -5746.4091      1837.9201     -3908.489     
    691100   960.21462      805657.2      -5660.7266      1752.5388     -3908.1877    
    691200   952.71882      870842.43     -5647.0011      1738.8578     -3908.1433    
    691300   990.90115      507601.85     -5716.9265      1808.5465     -3908.38      
    691400   1041.1092     -222127.22     -5808.9347      1900.1838     -3908.7509    
    691500   1053.1821     -1165269.7     -5831.1386      1922.2187     -3908.9199    
    691600   1008.7708     -2064280       -5749.7529      1841.1613     -3908.5916    
    691700   956.07206     -2601910.6     -5653.0605      1744.978      -3908.0825    
    691800   962.06122     -2549560.4     -5664.0533      1755.9092     -3908.1442    
    691900   1018.8191     -1930883       -5768.1791      1859.501      -3908.6782    
    692000   1055.3734     -1002819       -5835.1407      1926.2181     -3908.9226    
    692100   1034.1206     -80125.524     -5796.1207      1887.4286     -3908.6921    
    692200   982.38109      596337.02     -5701.3208      1792.996      -3908.3248    
    692300   950.42611      890305.85     -5642.8031      1734.6733     -3908.1298    
    692400   966.0862       752799.14     -5671.4785      1763.2554     -3908.2232    
    692500   1015.9549      205952.42     -5762.8263      1854.2734     -3908.5528    
    692600   1053.9816     -648764.93     -5832.5576      1923.678      -3908.8797    
    692700   1038.0945     -1609153.2     -5803.5113      1894.6816     -3908.8296    
    692800   980.36291     -2378297.5     -5697.6396      1789.3125     -3908.327     
    692900   949.64743     -2656355       -5641.2674      1733.2521     -3908.0153    
    693000   986.18938     -2319500.9     -5708.3301      1799.9467     -3908.3834    
    693100   1042.3389     -1516647.1     -5811.2874      1902.4283     -3908.8592    
    693200   1052.1929     -554686.35     -5829.2713      1920.4133     -3908.858     
    693300   1010.6264      276640.94     -5753.0626      1844.548      -3908.5145    
    693400   962.44468      785776.88     -5664.8102      1756.609      -3908.2011    
    693500   951.62683      880139.21     -5645.0017      1736.8648     -3908.1369    
    693600   987.41071      544615.58     -5710.5331      1802.1759     -3908.3572    
    693700   1038.4182     -164141.19     -5804.0002      1895.2724     -3908.7278    
    693800   1054.2783     -1099892.4     -5833.1422      1924.2194     -3908.9228    
    693900   1012.875      -2011704       -5757.2796      1848.6521     -3908.6275    
    694000   958.27476     -2582844.1     -5657.1036      1748.9983     -3908.1053    
    694100   959.44192     -2572654.2     -5659.2458      1751.1285     -3908.1173    
    694200   1014.8327     -1985740.9     -5760.8696      1852.2253     -3908.6443    
    694300   1054.7048     -1068278.1     -5833.9212      1924.9979     -3908.9233    
    694400   1037.0568     -136508.95     -5801.504       1892.7876     -3908.7163    
    694500   985.75142      561881.58     -5707.4938      1799.1474     -3908.3464    
    694600   951.18036      883926.28     -5644.1842      1736.0499     -3908.1343    
    694700   963.5881       775492.01     -5666.904       1758.696      -3908.208     
    694800   1012.3715      253970.3      -5756.2602      1847.7332     -3908.527     
    694900   1052.838      -585188.99     -5830.4562      1921.5907     -3908.8655    
    695000   1041.0117     -1546964.2     -5808.8561      1900.006      -3908.8501    
    695100   984.26448     -2339188.1     -5704.7984      1796.4335     -3908.3649    
    695200   949.56364     -2657054       -5641.1136      1733.0992     -3908.0145    
    695300   982.23248     -2359686.1     -5701.07        1792.7248     -3908.3452    
    695400   1039.5317     -1579213       -5806.1445      1897.3047     -3908.8398    
    695500   1053.4619     -617984.85     -5831.6024      1922.7293     -3908.873     
    695600   1014.2296      229328.83     -5759.6648      1851.1244     -3908.5403    
    695700   964.85784      763996.41     -5669.2291      1761.0134     -3908.2157    
    695800   950.76169      887470.22     -5643.4176      1735.2858     -3908.1318    
    695900   983.99765      579911.1      -5704.2816      1795.9465     -3908.3351    
    696000   1035.5582     -107221.45     -5798.7562      1890.0524     -3908.7039    
    696100   1055.0865     -1034437.8     -5834.6179      1925.6946     -3908.9233    
    696200   1016.9056     -1957565.2     -5764.6706      1856.0086     -3908.662     
    696300   960.7625      -2561050.6     -5661.6697      1753.5388     -3908.1309    
    696400   957.09948     -2593043.7     -5654.9463      1746.8532     -3908.0931    
    696500   1010.761      -2039084.3     -5753.4028      1844.7937     -3908.6091    
    696600   1053.7474     -1133704.3     -5832.1721      1923.2505     -3908.9216    
    696700   1039.8314     -193987.4      -5806.5915      1897.8516     -3908.7399    
    696800   989.20638      525694.25     -5713.8221      1805.4532     -3908.3689    
    696900   952.16326      875578.37     -5645.9839      1737.8439     -3908.14      
    697000   961.26841      796292.06     -5662.6562      1754.4622     -3908.194     
    697100   1008.7516      300516.15     -5749.6275      1841.1262     -3908.5013    
    697200   1051.4373     -522207.05     -5827.8837      1919.0341     -3908.8496    
    697300   1043.6976     -1484021.2     -5813.7763      1904.9081     -3908.8682    
    697400   988.2738      -2297873.2     -5712.1544      1803.7511     -3908.4033    
    697500   949.82658     -2654859.4     -5641.5963      1733.5791     -3908.0172    
    697600   978.39681     -2397623.3     -5694.0319      1785.7241     -3908.3078    
    697700   1036.5006     -1640972.4     -5800.5906      1891.7725     -3908.8181    
    697800   1054.4691     -681837.75     -5833.454       1924.5676     -3908.8863    
    697900   1017.7874      180566.91     -5766.1841      1857.6179     -3908.5662    
    698000   967.44416      740331.36     -5673.9653      1765.7339     -3908.2315    
    698100   950.12688      892830.49     -5642.2552      1734.1272     -3908.1281    
    698200   980.67684      613460.53     -5698.1994      1789.8855     -3908.3139    
    698300   1032.5446     -51426.876     -5793.2315      1884.5521     -3908.6793    
    698400   1055.6055     -968997.34     -5835.5631      1926.6417     -3908.9213    
    698500   1020.8385     -1901963.8     -5771.8817      1863.1867     -3908.695     
    698600   963.51785     -2536578.3     -5666.7268      1758.5677     -3908.159     
    698700   955.05032     -2610683.5     -5651.185       1743.1132     -3908.0719    
    698800   1006.6285     -2090813.6     -5745.8238      1837.2512     -3908.5726    
    698900   1052.5035     -1199005.2     -5829.8975      1920.9801     -3908.9174    
    699000   1042.4289     -252500.8      -5811.3551      1902.5926     -3908.7626    
    699100   992.73081      487803.84     -5720.2779      1811.8859     -3908.3921    
    699200   953.37087      865267.77     -5648.195       1740.0479     -3908.1471    
    699300   959.13662      815184.48     -5658.7526      1750.5713     -3908.1813    
    699400   1005.1123      345548.57     -5742.9598      1834.4839     -3908.4759    
    699500   1049.7893     -459893.99     -5824.8585      1916.0263     -3908.8322    
    699600   1046.1389     -1420425.1     -5818.2476      1909.3639     -3908.8837    
    699700   992.3645      -2254437.6     -5719.6592      1811.2173     -3908.4419    
    699800   950.43437     -2649776.1     -5642.712       1734.6884     -3908.0236    
    699900   974.70796     -2433233.6     -5687.2629      1778.9914     -3908.2715    
    700000   1033.2615     -1701823.3     -5794.6545      1885.8606     -3908.794     
    700100   1055.2064     -746166.77     -5834.8112      1925.9134     -3908.8978    
    700200   1021.2825      130399.76     -5772.5891      1863.997      -3908.5921    
    700300   970.19296      714798.88     -5678.9992      1770.7508     -3908.2483    
    700400   949.7249       896216.4      -5641.5192      1733.3935     -3908.1258    
    700500   977.46262      645237.73     -5692.3127      1784.0191     -3908.2936    
    700600   1029.3936      3185.9647     -5787.4554      1878.8011     -3908.6543    
    700700   1055.8353     -903660.73     -5835.9783      1927.0612     -3908.9171    
    700800   1024.6505     -1845001.2     -5778.8705      1870.1442     -3908.7263    
    700900   966.52162     -2509481.1     -5672.2396      1764.0501     -3908.1895    
    701000   953.3089      -2625534.3     -5647.9886      1739.9348     -3908.0537    
    701100   1002.4605     -2140830.7     -5738.1791      1829.644      -3908.5351    
    701200   1050.9769     -1264086.7     -5827.1045      1918.1939     -3908.9107    
    701300   1044.8348     -311986.8      -5815.768       1906.9837     -3908.7843    
    701400   996.30912      448241.05     -5726.8327      1818.4168     -3908.4159    
    701500   954.79836      853001.53     -5650.8088      1742.6533     -3908.1555    
    701600   957.20142      832155.95     -5655.209       1747.0393     -3908.1697    
    701700   1001.4705      389028.24     -5736.288       1827.8372     -3908.4508    
    701800   1047.905      -398322.38     -5821.4005      1912.5872     -3908.8133    
    701900   1048.3241     -1356276.1     -5822.2488      1913.3522     -3908.8966    
    702000   996.50998     -2208969       -5727.264       1818.7834     -3908.4806    
    702100   951.38267     -2641815.6     -5644.4527      1736.4192     -3908.0336    
    702200   971.19079     -2466441.6     -5680.8085      1772.572      -3908.2365    
    702300   1029.8315     -1761663.3     -5788.3679      1879.6003     -3908.7676    
    702400   1055.6671     -810891.41     -5835.6615      1926.7543     -3908.9072    
    702500   1024.6977      78874.101     -5778.8483      1870.2304     -3908.6179    
    702600   973.09277      687417.67     -5684.3097      1776.0434     -3908.2663    
    702700   949.55737      897625.66     -5641.2125      1733.0877     -3908.1248    
    702800   974.36875      675218.33     -5686.6465      1778.3723     -3908.2742    
    702900   1026.1217      56562.754     -5781.4581      1872.8293     -3908.6288    
    703000   1055.7778     -838515.62     -5835.867       1926.9564     -3908.9106    
    703100   1028.3196     -1786779.1     -5785.5966      1876.8409     -3908.7557    
    703200   969.75303     -2479818       -5678.17        1769.9479     -3908.2221    
    703300   951.88755     -2637562.7     -5645.3795      1737.3407     -3908.0389    
    703400   998.28293     -2189039.3     -5730.5163      1822.0193     -3908.497     
    703500   1049.1733     -1328853.1     -5823.8035      1914.9021     -3908.9014    
    703600   1047.035      -372380.73     -5819.8042      1910.9993     -3908.8049    
    703700   999.92528      407038.44     -5733.4572      1825.0169     -3908.4403    
    703800   956.44         838788.05     -5653.8148      1745.6496     -3908.1652    
    703900   955.47067      847194.6      -5652.0399      1743.8804     -3908.1595    
    704000   997.84323      430917.85     -5729.643       1821.2168     -3908.4262    
    704100   1045.7964     -337562.52     -5817.5319      1908.7387     -3908.7932    
    704200   1050.2434     -1291673       -5825.7621      1916.8551     -3908.907     
    704300   1000.6836     -2161558.2     -5734.9199      1826.4009     -3908.519     
    704400   952.66471     -2630996.1     -5646.8061      1738.7591     -3908.047     
    704500   967.86923     -2497176.7     -5674.7128      1766.5097     -3908.2031    
    704600   1026.2295     -1820389.9     -5781.7652      1873.0261     -3908.7391    
    704700   1055.8458     -875929        -5835.995       1927.0804     -3908.9146    
    704800   1028.016       26038.858     -5784.9302      1876.2868     -3908.6435    
    704900   976.13145      658208.05     -5689.8747      1781.5895     -3908.2852    
    705000   949.62495      897057.34     -5641.3362      1733.2111     -3908.1252    
    705001   950.46833      889949.36     -5642.8804      1734.7504     -3908.1301    
Loop time of 1144.11 on 1 procs for 500000 steps with 14121 atoms

Performance: 37.759 ns/day, 0.636 hours/ns, 437.021 timesteps/s, 6.171 Matom-step/s
74.5% CPU use with 1 MPI tasks x 1 OpenMP threads

MPI task timing breakdown:
Section |  min time  |  avg time  |  max time  |%varavg| %total
---------------------------------------------------------------
Pair    | 415.72     | 415.72     | 415.72     |   0.0 | 36.34
Neigh   | 568.65     | 568.65     | 568.65     |   0.0 | 49.70
Comm    | 19.276     | 19.276     | 19.276     |   0.0 |  1.68
Output  | 88.699     | 88.699     | 88.699     |   0.0 |  7.75
Modify  | 37.434     | 37.434     | 37.434     |   0.0 |  3.27
Other   |            | 14.34      |            |       |  1.25

Nlocal:          14121 ave       14121 max       14121 min
Histogram: 1 0 0 0 0 0 0 0 0 0
Nghost:              0 ave           0 max           0 min
Histogram: 1 0 0 0 0 0 0 0 0 0
Neighs:              0 ave           0 max           0 min
Histogram: 1 0 0 0 0 0 0 0 0 0
FullNghs:       156684 ave      156684 max      156684 min
Histogram: 1 0 0 0 0 0 0 0 0 0

Total # of neighbors = 156684
Ave neighs/atom = 11.095815
Neighbor list builds = 22727
Dangerous builds = 0
Total wall time: 0:22:17
