ITEM: TIMESTEP
17000
ITEM: NUMBER OF ATOMS
14121
ITEM: BOX BOUNDS ss pp ss
-2.1051609479999997e-02 2.1049505160947999e+02
-3.3141060007199998e-03 3.3144374113200719e+01
-6.6153087972000008e-03 6.6146475308797193e+01
ITEM: ATOMS id type x y z
400 1 1.5945 14.6842 0
402 1 4.7835 14.6842 0
404 1 7.9725 14.6842 0
406 1 11.1615 14.6842 0
408 1 14.3505 14.6842 0
410 1 17.5395 14.6842 0
412 1 20.7285 14.6842 0
414 1 23.9175 14.6842 0
416 1 27.1065 14.6842 0
418 1 30.2955 14.6842 0
420 1 33.4845 14.6842 0
422 1 36.6735 14.6842 0
424 1 39.8625 14.6842 0
426 1 43.0515 14.6842 0
428 1 46.2405 14.6842 0
430 1 49.4295 14.6842 0
432 1 52.6185 14.6842 0
434 1 55.8075 14.6842 0
436 1 58.9965 14.6842 0
438 1 62.1855 14.6842 0
440 1 65.3745 14.6842 0
442 1 68.5635 14.6842 0
444 1 71.7525 14.6842 0
446 1 74.9415 14.6842 0
448 1 78.1305 14.6842 0
450 1 81.3195 14.6842 0
452 1 84.5085 14.6842 0
454 1 87.6975 14.6842 0
456 1 90.8865 14.6842 0
458 1 94.0755 14.6842 0
460 1 97.2645 14.6842 0
462 1 100.454 14.6842 0
464 1 103.642 14.6842 0
466 1 106.832 14.6842 0
468 1 110.02 14.6842 0
470 1 113.21 14.6842 0
472 1 116.398 14.6842 0
474 1 119.588 14.6842 0
476 1 122.776 14.6842 0
478 1 125.966 14.6842 0
480 1 129.155 14.6842 0
482 1 132.344 14.6842 0
484 1 135.532 14.6842 0
486 1 138.721 14.6842 0
488 1 141.911 14.6842 0
490 1 145.1 14.6842 0
492 1 148.288 14.6842 0
494 1 151.477 14.6842 0
496 1 154.667 14.6842 0
498 1 157.856 14.6842 0
500 1 161.044 14.6842 0
502 1 164.233 14.6842 0
504 1 167.423 14.6842 0
506 1 170.612 14.6842 0
508 1 173.8 14.6842 0
510 1 176.989 14.6842 0
512 1 180.179 14.6842 0
514 1 183.368 14.6842 0
516 1 186.556 14.6842 0
518 1 189.745 14.6842 0
520 1 192.935 14.6842 0
522 1 196.124 14.6842 0
524 1 199.312 14.6842 0
526 1 202.501 14.6842 0
528 1 205.691 14.6842 0
530 1 208.88 14.6842 0
531 1 0 17.446 0
533 1 3.189 17.446 0
535 1 6.378 17.446 0
537 1 9.567 17.446 0
539 1 12.756 17.446 0
541 1 15.945 17.446 0
543 1 19.134 17.446 0
545 1 22.323 17.446 0
547 1 25.512 17.446 0
549 1 28.701 17.446 0
551 1 31.89 17.446 0
553 1 35.079 17.446 0
555 1 38.268 17.446 0
557 1 41.457 17.446 0
559 1 44.646 17.446 0
561 1 47.835 17.446 0
563 1 51.024 17.446 0
565 1 54.213 17.446 0
567 1 57.402 17.446 0
569 1 60.591 17.446 0
571 1 63.78 17.446 0
573 1 66.969 17.446 0
575 1 70.158 17.446 0
577 1 73.347 17.446 0
579 1 76.536 17.446 0
581 1 79.725 17.446 0
583 1 82.914 17.446 0
585 1 86.103 17.446 0
587 1 89.292 17.446 0
589 1 92.481 17.446 0
591 1 95.67 17.446 0
593 1 98.859 17.446 0
595 1 102.048 17.446 0
597 1 105.237 17.446 0
599 1 108.426 17.446 0
601 1 111.615 17.446 0
603 1 114.804 17.446 0
605 1 117.993 17.446 0
607 1 121.182 17.446 0
609 1 124.371 17.446 0
611 1 127.56 17.446 0
613 1 130.749 17.446 0
615 1 133.938 17.446 0
617 1 137.127 17.446 0
619 1 140.316 17.446 0
621 1 143.505 17.446 0
623 1 146.694 17.446 0
625 1 149.883 17.446 0
627 1 153.072 17.446 0
629 1 156.261 17.446 0
631 1 159.45 17.446 0
633 1 162.639 17.446 0
635 1 165.828 17.446 0
637 1 169.017 17.446 0
639 1 172.206 17.446 0
641 1 175.395 17.446 0
643 1 178.584 17.446 0
645 1 181.773 17.446 0
647 1 184.962 17.446 0
649 1 188.151 17.446 0
651 1 191.34 17.446 0
653 1 194.529 17.446 0
655 1 197.718 17.446 0
657 1 200.907 17.446 0
659 1 204.096 17.446 0
661 1 207.285 17.446 0
663 1 210.474 17.446 0
665 1 1.5945 20.2077 0
667 1 4.7835 20.2077 0
669 1 7.9725 20.2077 0
671 1 11.1615 20.2077 0
673 1 14.3505 20.2077 0
675 1 17.5395 20.2077 0
677 1 20.7285 20.2077 0
679 1 23.9175 20.2077 0
681 1 27.1065 20.2077 0
683 1 30.2955 20.2077 0
685 1 33.4845 20.2077 0
687 1 36.6735 20.2077 0
689 1 39.8625 20.2077 0
691 1 43.0515 20.2077 0
693 1 46.2405 20.2077 0
695 1 49.4295 20.2077 0
697 1 52.6185 20.2077 0
699 1 55.8075 20.2077 0
701 1 58.9965 20.2077 0
703 1 62.1855 20.2077 0
705 1 65.3745 20.2077 0
707 1 68.5635 20.2077 0
709 1 71.7525 20.2077 0
711 1 74.9415 20.2077 0
713 1 78.1305 20.2077 0
715 1 81.3195 20.2077 0
717 1 84.5085 20.2077 0
719 1 87.6975 20.2077 0
721 1 90.8865 20.2077 0
723 1 94.0755 20.2077 0
725 1 97.2645 20.2077 0
727 1 100.454 20.2077 0
729 1 103.642 20.2077 0
731 1 106.832 20.2077 0
733 1 110.02 20.2077 0
735 1 113.21 20.2077 0
737 1 116.398 20.2077 0
739 1 119.588 20.2077 0
741 1 122.776 20.2077 0
743 1 125.966 20.2077 0
745 1 129.155 20.2077 0
747 1 132.344 20.2077 0
749 1 135.532 20.2077 0
751 1 138.721 20.2077 0
753 1 141.911 20.2077 0
755 1 145.1 20.2077 0
757 1 148.288 20.2077 0
759 1 151.477 20.2077 0
761 1 154.667 20.2077 0
763 1 157.856 20.2077 0
765 1 161.044 20.2077 0
767 1 164.233 20.2077 0
769 1 167.423 20.2077 0
771 1 170.612 20.2077 0
773 1 173.8 20.2077 0
775 1 176.989 20.2077 0
777 1 180.179 20.2077 0
779 1 183.368 20.2077 0
781 1 186.556 20.2077 0
783 1 189.745 20.2077 0
785 1 192.935 20.2077 0
787 1 196.124 20.2077 0
789 1 199.312 20.2077 0
791 1 202.501 20.2077 0
793 1 205.691 20.2077 0
795 1 208.88 20.2077 0
796 1 0 22.9695 0
798 1 3.189 22.9695 0
800 1 6.378 22.9695 0
802 1 9.567 22.9695 0
804 1 12.756 22.9695 0
806 1 15.945 22.9695 0
808 1 19.134 22.9695 0
810 1 22.323 22.9695 0
812 1 25.512 22.9695 0
814 1 28.701 22.9695 0
816 1 31.89 22.9695 0
818 1 35.079 22.9695 0
820 1 38.268 22.9695 0
822 1 41.457 22.9695 0
824 1 44.646 22.9695 0
826 1 47.835 22.9695 0
828 1 51.024 22.9695 0
830 1 54.213 22.9695 0
832 1 57.402 22.9695 0
834 1 60.591 22.9695 0
836 1 63.78 22.9695 0
838 1 66.969 22.9695 0
840 1 70.158 22.9695 0
842 1 73.347 22.9695 0
844 1 76.536 22.9695 0
846 1 79.725 22.9695 0
848 1 82.914 22.9695 0
850 1 86.103 22.9695 0
852 1 89.292 22.9695 0
854 1 92.481 22.9695 0
856 1 95.67 22.9695 0
858 1 98.859 22.9695 0
860 1 102.048 22.9695 0
862 1 105.237 22.9695 0
864 1 108.426 22.9695 0
866 1 111.615 22.9695 0
868 1 114.804 22.9695 0
870 1 117.993 22.9695 0
872 1 121.182 22.9695 0
874 1 124.371 22.9695 0
876 1 127.56 22.9695 0
878 1 130.749 22.9695 0
880 1 133.938 22.9695 0
882 1 137.127 22.9695 0
884 1 140.316 22.9695 0
886 1 143.505 22.9695 0
888 1 146.694 22.9695 0
890 1 149.883 22.9695 0
892 1 153.072 22.9695 0
894 1 156.261 22.9695 0
896 1 159.45 22.9695 0
898 1 162.639 22.9695 0
900 1 165.828 22.9695 0
902 1 169.017 22.9695 0
904 1 172.206 22.9695 0
906 1 175.395 22.9695 0
908 1 178.584 22.9695 0
910 1 181.773 22.9695 0
912 1 184.962 22.9695 0
914 1 188.151 22.9695 0
916 1 191.34 22.9695 0
918 1 194.529 22.9695 0
920 1 197.718 22.9695 0
922 1 200.907 22.9695 0
924 1 204.096 22.9695 0
926 1 207.285 22.9695 0
928 1 210.474 22.9695 0
930 1 1.5945 25.7312 0
932 1 4.7835 25.7312 0
934 1 7.9725 25.7312 0
936 1 11.1615 25.7312 0
938 1 14.3505 25.7312 0
940 1 17.5395 25.7312 0
942 1 20.7285 25.7312 0
944 1 23.9175 25.7312 0
946 1 27.1065 25.7312 0
948 1 30.2955 25.7312 0
950 1 33.4845 25.7312 0
952 1 36.6735 25.7312 0
954 1 39.8625 25.7312 0
956 1 43.0515 25.7312 0
958 1 46.2405 25.7312 0
960 1 49.4295 25.7312 0
962 1 52.6185 25.7312 0
964 1 55.8075 25.7312 0
966 1 58.9965 25.7312 0
968 1 62.1855 25.7312 0
970 1 65.3745 25.7312 0
972 1 68.5635 25.7312 0
974 1 71.7525 25.7312 0
976 1 74.9415 25.7312 0
978 1 78.1305 25.7312 0
980 1 81.3195 25.7312 0
982 1 84.5085 25.7312 0
984 1 87.6975 25.7312 0
986 1 90.8865 25.7312 0
988 1 94.0755 25.7312 0
990 1 97.2645 25.7312 0
992 1 100.454 25.7312 0
994 1 103.642 25.7312 0
996 1 106.832 25.7312 0
998 1 110.02 25.7312 0
1000 1 113.21 25.7312 0
1002 1 116.398 25.7312 0
1004 1 119.588 25.7312 0
1006 1 122.776 25.7312 0
1008 1 125.966 25.7312 0
1010 1 129.155 25.7312 0
1012 1 132.344 25.7312 0
1014 1 135.532 25.7312 0
1016 1 138.721 25.7312 0
1018 1 141.911 25.7312 0
1020 1 145.1 25.7312 0
1022 1 148.288 25.7312 0
1024 1 151.477 25.7312 0
1026 1 154.667 25.7312 0
1028 1 157.856 25.7312 0
1030 1 161.044 25.7312 0
1032 1 164.233 25.7312 0
1034 1 167.423 25.7312 0
1036 1 170.612 25.7312 0
1038 1 173.8 25.7312 0
1040 1 176.989 25.7312 0
1042 1 180.179 25.7312 0
1044 1 183.368 25.7312 0
1046 1 186.556 25.7312 0
1048 1 189.745 25.7312 0
1050 1 192.935 25.7312 0
1052 1 196.124 25.7312 0
1054 1 199.312 25.7312 0
1056 1 202.501 25.7312 0
1058 1 205.691 25.7312 0
1060 1 208.88 25.7312 0
1061 1 0 28.493 0
1063 1 3.189 28.493 0
1065 1 6.378 28.493 0
1067 1 9.567 28.493 0
1069 1 12.756 28.493 0
1071 1 15.945 28.493 0
1073 1 19.134 28.493 0
1075 1 22.323 28.493 0
1077 1 25.512 28.493 0
1079 1 28.701 28.493 0
1081 1 31.89 28.493 0
1083 1 35.079 28.493 0
1085 1 38.268 28.493 0
1087 1 41.457 28.493 0
1089 1 44.646 28.493 0
1091 1 47.835 28.493 0
1093 1 51.024 28.493 0
1095 1 54.213 28.493 0
1097 1 57.402 28.493 0
1099 1 60.591 28.493 0
1101 1 63.78 28.493 0
1103 1 66.969 28.493 0
1105 1 70.158 28.493 0
1107 1 73.347 28.493 0
1109 1 76.536 28.493 0
1111 1 79.725 28.493 0
1113 1 82.914 28.493 0
1115 1 86.103 28.493 0
1117 1 89.292 28.493 0
1119 1 92.481 28.493 0
1121 1 95.67 28.493 0
1123 1 98.859 28.493 0
1125 1 102.048 28.493 0
1127 1 105.237 28.493 0
1129 1 108.426 28.493 0
1131 1 111.615 28.493 0
1133 1 114.804 28.493 0
1135 1 117.993 28.493 0
1137 1 121.182 28.493 0
1139 1 124.371 28.493 0
1141 1 127.56 28.493 0
1143 1 130.749 28.493 0
1145 1 133.938 28.493 0
1147 1 137.127 28.493 0
1149 1 140.316 28.493 0
1151 1 143.505 28.493 0
1153 1 146.694 28.493 0
1155 1 149.883 28.493 0
1157 1 153.072 28.493 0
1159 1 156.261 28.493 0
1161 1 159.45 28.493 0
1163 1 162.639 28.493 0
1165 1 165.828 28.493 0
1167 1 169.017 28.493 0
1169 1 172.206 28.493 0
1171 1 175.395 28.493 0
1173 1 178.584 28.493 0
1175 1 181.773 28.493 0
1177 1 184.962 28.493 0
1179 1 188.151 28.493 0
1181 1 191.34 28.493 0
1183 1 194.529 28.493 0
1185 1 197.718 28.493 0
1187 1 200.907 28.493 0
1189 1 204.096 28.493 0
1191 1 207.285 28.493 0
1193 1 210.474 28.493 0
1195 1 1.5945 31.2547 0
1197 1 4.7835 31.2547 0
1199 1 7.9725 31.2547 0
1201 1 11.1615 31.2547 0
1203 1 14.3505 31.2547 0
1205 1 17.5395 31.2547 0
1207 1 20.7285 31.2547 0
1209 1 23.9175 31.2547 0
1211 1 27.1065 31.2547 0
1213 1 30.2955 31.2547 0
1215 1 33.4845 31.2547 0
1217 1 36.6735 31.2547 0
1219 1 39.8625 31.2547 0
1221 1 43.0515 31.2547 0
1223 1 46.2405 31.2547 0
1225 1 49.4295 31.2547 0
1227 1 52.6185 31.2547 0
1229 1 55.8075 31.2547 0
1231 1 58.9965 31.2547 0
1233 1 62.1855 31.2547 0
1235 1 65.3745 31.2547 0
1237 1 68.5635 31.2547 0
1239 1 71.7525 31.2547 0
1241 1 74.9415 31.2547 0
1243 1 78.1305 31.2547 0
1245 1 81.3195 31.2547 0
1247 1 84.5085 31.2547 0
1249 1 87.6975 31.2547 0
1251 1 90.8865 31.2547 0
1253 1 94.0755 31.2547 0
1255 1 97.2645 31.2547 0
1257 1 100.454 31.2547 0
1259 1 103.642 31.2547 0
1261 1 106.832 31.2547 0
1263 1 110.02 31.2547 0
1265 1 113.21 31.2547 0
1267 1 116.398 31.2547 0
1269 1 119.588 31.2547 0
1271 1 122.776 31.2547 0
1273 1 125.966 31.2547 0
1275 1 129.155 31.2547 0
1277 1 132.344 31.2547 0
1279 1 135.532 31.2547 0
1281 1 138.721 31.2547 0
1283 1 141.911 31.2547 0
1285 1 145.1 31.2547 0
1287 1 148.288 31.2547 0
1289 1 151.477 31.2547 0
1291 1 154.667 31.2547 0
1293 1 157.856 31.2547 0
1295 1 161.044 31.2547 0
1297 1 164.233 31.2547 0
1299 1 167.423 31.2547 0
1301 1 170.612 31.2547 0
1303 1 173.8 31.2547 0
1305 1 176.989 31.2547 0
1307 1 180.179 31.2547 0
1309 1 183.368 31.2547 0
1311 1 186.556 31.2547 0
1313 1 189.745 31.2547 0
1315 1 192.935 31.2547 0
1317 1 196.124 31.2547 0
1319 1 199.312 31.2547 0
1321 1 202.501 31.2547 0
1323 1 205.691 31.2547 0
1325 1 208.88 31.2547 0
1326 1 0 0.868806 0
1328 1 3.189 0.868806 0
1330 1 6.378 0.868806 0
1332 1 9.567 0.868806 0
1334 1 12.756 0.868806 0
1336 1 15.945 0.868806 0
1338 1 19.134 0.868806 0
1340 1 22.323 0.868806 0
1342 1 25.512 0.868806 0
1344 1 28.701 0.868806 0
1346 1 31.89 0.868806 0
1348 1 35.079 0.868806 0
1350 1 38.268 0.868806 0
1352 1 41.457 0.868806 0
1354 1 44.646 0.868806 0
1356 1 47.835 0.868806 0
1358 1 51.024 0.868806 0
1360 1 54.213 0.868806 0
1362 1 57.402 0.868806 0
1364 1 60.591 0.868806 0
1366 1 63.78 0.868806 0
1368 1 66.969 0.868806 0
1370 1 70.158 0.868806 0
1372 1 73.347 0.868806 0
1374 1 76.536 0.868806 0
1376 1 79.725 0.868806 0
1378 1 82.914 0.868806 0
1380 1 86.103 0.868806 0
1382 1 89.292 0.868806 0
1384 1 92.481 0.868806 0
1386 1 95.67 0.868806 0
1388 1 98.859 0.868806 0
1390 1 102.048 0.868806 0
1392 1 105.237 0.868806 0
1394 1 108.426 0.868806 0
1396 1 111.615 0.868806 0
1398 1 114.804 0.868806 0
1400 1 117.993 0.868806 0
1402 1 121.182 0.868806 0
1404 1 124.371 0.868806 0
1406 1 127.56 0.868806 0
1408 1 130.749 0.868806 0
1410 1 133.938 0.868806 0
1412 1 137.127 0.868806 0
1414 1 140.316 0.868806 0
1416 1 143.505 0.868806 0
1418 1 146.694 0.868806 0
1420 1 149.883 0.868806 0
1422 1 153.072 0.868806 0
1424 1 156.261 0.868806 0
1426 1 159.45 0.868806 0
1428 1 162.639 0.868806 0
1430 1 165.828 0.868806 0
1432 1 169.017 0.868806 0
1434 1 172.206 0.868806 0
1436 1 175.395 0.868806 0
1438 1 178.584 0.868806 0
1440 1 181.773 0.868806 0
1442 1 184.962 0.868806 0
1444 1 188.151 0.868806 0
1446 1 191.34 0.868806 0
1448 1 194.529 0.868806 0
1450 1 197.718 0.868806 0
1452 1 200.907 0.868806 0
1454 1 204.096 0.868806 0
1456 1 207.285 0.868806 0
1458 1 210.474 0.868806 0
1460 1 1.5945 3.63056 0
1462 1 4.7835 3.63056 0
1464 1 7.9725 3.63056 0
1466 1 11.1615 3.63056 0
1468 1 14.3505 3.63056 0
1470 1 17.5395 3.63056 0
1472 1 20.7285 3.63056 0
1474 1 23.9175 3.63056 0
1476 1 27.1065 3.63056 0
1478 1 30.2955 3.63056 0
1480 1 33.4845 3.63056 0
1482 1 36.6735 3.63056 0
1484 1 39.8625 3.63056 0
1486 1 43.0515 3.63056 0
1488 1 46.2405 3.63056 0
1490 1 49.4295 3.63056 0
1492 1 52.6185 3.63056 0
1494 1 55.8075 3.63056 0
1496 1 58.9965 3.63056 0
1498 1 62.1855 3.63056 0
1500 1 65.3745 3.63056 0
1502 1 68.5635 3.63056 0
1504 1 71.7525 3.63056 0
1506 1 74.9415 3.63056 0
1508 1 78.1305 3.63056 0
1510 1 81.3195 3.63056 0
1512 1 84.5085 3.63056 0
1514 1 87.6975 3.63056 0
1516 1 90.8865 3.63056 0
1518 1 94.0755 3.63056 0
1520 1 97.2645 3.63056 0
1522 1 100.454 3.63056 0
1524 1 103.642 3.63056 0
1526 1 106.832 3.63056 0
1528 1 110.02 3.63056 0
1530 1 113.21 3.63056 0
1532 1 116.398 3.63056 0
1534 1 119.588 3.63056 0
1536 1 122.776 3.63056 0
1538 1 125.966 3.63056 0
1540 1 129.155 3.63056 0
1542 1 132.344 3.63056 0
1544 1 135.532 3.63056 0
1546 1 138.721 3.63056 0
1548 1 141.911 3.63056 0
1550 1 145.1 3.63056 0
1552 1 148.288 3.63056 0
1554 1 151.477 3.63056 0
1556 1 154.667 3.63056 0
1558 1 157.856 3.63056 0
1560 1 161.044 3.63056 0
1562 1 164.233 3.63056 0
1564 1 167.423 3.63056 0
1566 1 170.612 3.63056 0
1568 1 173.8 3.63056 0
1570 1 176.989 3.63056 0
1572 1 180.179 3.63056 0
1574 1 183.368 3.63056 0
1576 1 186.556 3.63056 0
1578 1 189.745 3.63056 0
1580 1 192.935 3.63056 0
1582 1 196.124 3.63056 0
1584 1 199.312 3.63056 0
1586 1 202.501 3.63056 0
1588 1 205.691 3.63056 0
1590 1 208.88 3.63056 0
1591 1 0 5.8344 0
1592 1 3.189 5.8344 0
1593 1 6.378 5.8344 0
1594 1 9.567 5.8344 0
1595 1 12.756 5.8344 0
1596 1 15.945 5.8344 0
1597 1 19.134 5.8344 0
1598 1 22.323 5.8344 0
1599 1 25.512 5.8344 0
1600 1 28.701 5.8344 0
1601 1 31.89 5.8344 0
1602 1 35.079 5.8344 0
1603 1 38.268 5.8344 0
1604 1 41.457 5.8344 0
1605 1 44.646 5.8344 0
1606 1 47.835 5.8344 0
1607 1 51.024 5.8344 0
1608 1 54.213 5.8344 0
1609 1 57.402 5.8344 0
1610 1 60.591 5.8344 0
1611 1 63.78 5.8344 0
1612 1 66.969 5.8344 0
1613 1 70.158 5.8344 0
1614 1 73.347 5.8344 0
1615 1 76.536 5.8344 0
1616 1 79.725 5.8344 0
1617 1 82.914 5.8344 0
1618 1 86.103 5.8344 0
1619 1 89.292 5.8344 0
1620 1 92.481 5.8344 0
1621 1 95.67 5.8344 0
1622 1 98.859 5.8344 0
1623 1 102.048 5.8344 0
1624 1 105.237 5.8344 0
1625 1 108.426 5.8344 0
1626 1 111.615 5.8344 0
1627 1 114.804 5.8344 0
1628 1 117.993 5.8344 0
1629 1 121.182 5.8344 0
1630 1 124.371 5.8344 0
1631 1 127.56 5.8344 0
1632 1 130.749 5.8344 0
1633 1 133.938 5.8344 0
1634 1 137.127 5.8344 0
1635 1 140.316 5.8344 0
1636 1 143.505 5.8344 0
1637 1 146.694 5.8344 0
1638 1 149.883 5.8344 0
1639 1 153.072 5.8344 0
1640 1 156.261 5.8344 0
1641 1 159.45 5.8344 0
1642 1 162.639 5.8344 0
1643 1 165.828 5.8344 0
1644 1 169.017 5.8344 0
1645 1 172.206 5.8344 0
1646 1 175.395 5.8344 0
1647 1 178.584 5.8344 0
1648 1 181.773 5.8344 0
1649 1 184.962 5.8344 0
1650 1 188.151 5.8344 0
1651 1 191.34 5.8344 0
1652 1 194.529 5.8344 0
1653 1 197.718 5.8344 0
1654 1 200.907 5.8344 0
1655 1 204.096 5.8344 0
1656 1 207.285 5.8344 0
1657 1 210.474 5.8344 0
1 1 0 6.95686 0
3 1 3.189 6.95686 0
5 1 6.378 6.95686 0
7 1 9.567 6.95686 0
9 1 12.756 6.95686 0
11 1 15.945 6.95686 0
13 1 19.134 6.95686 0
15 1 22.323 6.95686 0
17 1 25.512 6.95686 0
19 1 28.701 6.95686 0
21 1 31.89 6.95686 0
23 1 35.079 6.95686 0
25 1 38.268 6.95686 0
27 1 41.457 6.95686 0
29 1 44.646 6.95686 0
31 1 47.835 6.95686 0
33 1 51.024 6.95686 0
35 1 54.213 6.95686 0
37 1 57.402 6.95686 0
39 1 60.591 6.95686 0
41 1 63.78 6.95686 0
43 1 66.969 6.95686 0
45 1 70.158 6.95686 0
47 1 73.347 6.95686 0
49 1 76.536 6.95686 0
51 1 79.725 6.95686 0
53 1 82.914 6.95686 0
55 1 86.103 6.95686 0
57 1 89.292 6.95686 0
59 1 92.481 6.95686 0
61 1 95.67 6.95686 0
63 1 98.859 6.95686 0
65 1 102.048 6.95686 0
67 1 105.237 6.95686 0
69 1 108.426 6.95686 0
71 1 111.615 6.95686 0
73 1 114.804 6.95686 0
75 1 117.993 6.95686 0
77 1 121.182 6.95686 0
79 1 124.371 6.95686 0
81 1 127.56 6.95686 0
83 1 130.749 6.95686 0
85 1 133.938 6.95686 0
87 1 137.127 6.95686 0
89 1 140.316 6.95686 0
91 1 143.505 6.95686 0
93 1 146.694 6.95686 0
95 1 149.883 6.95686 0
97 1 153.072 6.95686 0
99 1 156.261 6.95686 0
101 1 159.45 6.95686 0
103 1 162.639 6.95686 0
105 1 165.828 6.95686 0
107 1 169.017 6.95686 0
109 1 172.206 6.95686 0
111 1 175.395 6.95686 0
113 1 178.584 6.95686 0
115 1 181.773 6.95686 0
117 1 184.962 6.95686 0
119 1 188.151 6.95686 0
121 1 191.34 6.95686 0
123 1 194.529 6.95686 0
125 1 197.718 6.95686 0
127 1 200.907 6.95686 0
129 1 204.096 6.95686 0
131 1 207.285 6.95686 0
133 1 210.474 6.95686 0
135 1 1.5945 9.1607 0
137 1 4.7835 9.1607 0
139 1 7.9725 9.1607 0
141 1 11.1615 9.1607 0
143 1 14.3505 9.1607 0
145 1 17.5395 9.1607 0
147 1 20.7285 9.1607 0
149 1 23.9175 9.1607 0
151 1 27.1065 9.1607 0
153 1 30.2955 9.1607 0
155 1 33.4845 9.1607 0
157 1 36.6735 9.1607 0
159 1 39.8625 9.1607 0
161 1 43.0515 9.1607 0
163 1 46.2405 9.1607 0
165 1 49.4295 9.1607 0
167 1 52.6185 9.1607 0
169 1 55.8075 9.1607 0
171 1 58.9965 9.1607 0
173 1 62.1855 9.1607 0
175 1 65.3745 9.1607 0
177 1 68.5635 9.1607 0
179 1 71.7525 9.1607 0
181 1 74.9415 9.1607 0
183 1 78.1305 9.1607 0
185 1 81.3195 9.1607 0
187 1 84.5085 9.1607 0
189 1 87.6975 9.1607 0
191 1 90.8865 9.1607 0
193 1 94.0755 9.1607 0
195 1 97.2645 9.1607 0
197 1 100.454 9.1607 0
199 1 103.642 9.1607 0
201 1 106.832 9.1607 0
203 1 110.02 9.1607 0
205 1 113.21 9.1607 0
207 1 116.398 9.1607 0
209 1 119.588 9.1607 0
211 1 122.776 9.1607 0
213 1 125.966 9.1607 0
215 1 129.155 9.1607 0
217 1 132.344 9.1607 0
219 1 135.532 9.1607 0
221 1 138.721 9.1607 0
223 1 141.911 9.1607 0
225 1 145.1 9.1607 0
227 1 148.288 9.1607 0
229 1 151.477 9.1607 0
231 1 154.667 9.1607 0
233 1 157.856 9.1607 0
235 1 161.044 9.1607 0
237 1 164.233 9.1607 0
239 1 167.423 9.1607 0
241 1 170.612 9.1607 0
243 1 173.8 9.1607 0
245 1 176.989 9.1607 0
247 1 180.179 9.1607 0
249 1 183.368 9.1607 0
251 1 186.556 9.1607 0
253 1 189.745 9.1607 0
255 1 192.935 9.1607 0
257 1 196.124 9.1607 0
259 1 199.312 9.1607 0
261 1 202.501 9.1607 0
263 1 205.691 9.1607 0
265 1 208.88 9.1607 0
266 1 0 11.9225 0
268 1 3.189 11.9225 0
270 1 6.378 11.9225 0
272 1 9.567 11.9225 0
274 1 12.756 11.9225 0
276 1 15.945 11.9225 0
278 1 19.134 11.9225 0
280 1 22.323 11.9225 0
282 1 25.512 11.9225 0
284 1 28.701 11.9225 0
286 1 31.89 11.9225 0
288 1 35.079 11.9225 0
290 1 38.268 11.9225 0
292 1 41.457 11.9225 0
294 1 44.646 11.9225 0
296 1 47.835 11.9225 0
298 1 51.024 11.9225 0
300 1 54.213 11.9225 0
302 1 57.402 11.9225 0
304 1 60.591 11.9225 0
306 1 63.78 11.9225 0
308 1 66.969 11.9225 0
310 1 70.158 11.9225 0
312 1 73.347 11.9225 0
314 1 76.536 11.9225 0
316 1 79.725 11.9225 0
318 1 82.914 11.9225 0
320 1 86.103 11.9225 0
322 1 89.292 11.9225 0
324 1 92.481 11.9225 0
326 1 95.67 11.9225 0
328 1 98.859 11.9225 0
330 1 102.048 11.9225 0
332 1 105.237 11.9225 0
334 1 108.426 11.9225 0
336 1 111.615 11.9225 0
338 1 114.804 11.9225 0
340 1 117.993 11.9225 0
342 1 121.182 11.9225 0
344 1 124.371 11.9225 0
346 1 127.56 11.9225 0
348 1 130.749 11.9225 0
350 1 133.938 11.9225 0
352 1 137.127 11.9225 0
354 1 140.316 11.9225 0
356 1 143.505 11.9225 0
358 1 146.694 11.9225 0
360 1 149.883 11.9225 0
362 1 153.072 11.9225 0
364 1 156.261 11.9225 0
366 1 159.45 11.9225 0
368 1 162.639 11.9225 0
370 1 165.828 11.9225 0
372 1 169.017 11.9225 0
374 1 172.206 11.9225 0
376 1 175.395 11.9225 0
378 1 178.584 11.9225 0
380 1 181.773 11.9225 0
382 1 184.962 11.9225 0
384 1 188.151 11.9225 0
386 1 191.34 11.9225 0
388 1 194.529 11.9225 0
390 1 197.718 11.9225 0
392 1 200.907 11.9225 0
394 1 204.096 11.9225 0
396 1 207.285 11.9225 0
398 1 210.474 11.9225 0
9084 2 0 3.68436 6.20061
7494 2 0 4.80682 6.20061
9085 2 3.189 3.68436 6.20061
7496 2 3.189 4.80682 6.20061
9086 2 6.378 3.68436 6.20061
7498 2 6.378 4.80682 6.20061
9087 2 9.567 3.68436 6.20061
7500 2 9.567 4.80682 6.20061
9088 2 12.756 3.68436 6.20061
7502 2 12.756 4.80682 6.20061
9089 2 15.945 3.68436 6.20061
7504 2 15.945 4.80682 6.20061
9090 2 19.134 3.68436 6.20061
7506 2 19.134 4.80682 6.20061
9091 2 22.323 3.68436 6.20061
7508 2 22.323 4.80682 6.20061
9092 2 25.512 3.68436 6.20061
7510 2 25.512 4.80682 6.20061
9093 2 28.701 3.68436 6.20061
7512 2 28.701 4.80682 6.20061
9094 2 31.89 3.68436 6.20061
7514 2 31.89 4.80682 6.20061
9095 2 35.079 3.68436 6.20061
7516 2 35.079 4.80682 6.20061
9096 2 38.268 3.68436 6.20061
7518 2 38.268 4.80682 6.20061
9097 2 41.457 3.68436 6.20061
7520 2 41.457 4.80682 6.20061
9098 2 44.646 3.68436 6.20061
7522 2 44.646 4.80682 6.20061
9099 2 47.835 3.68436 6.20061
7524 2 47.835 4.80682 6.20061
9100 2 51.024 3.68436 6.20061
7526 2 51.024 4.80682 6.20061
9101 2 54.213 3.68436 6.20061
7528 2 54.213 4.80682 6.20061
9102 2 57.402 3.68436 6.20061
7530 2 57.402 4.80682 6.20061
9103 2 60.591 3.68436 6.20061
7532 2 60.591 4.80682 6.20061
9104 2 63.78 3.68436 6.20061
7534 2 63.78 4.80682 6.20061
9105 2 66.969 3.68436 6.20061
7536 2 66.969 4.80682 6.20061
9106 2 70.158 3.68436 6.20061
7538 2 70.158 4.80682 6.20061
9107 2 73.347 3.68436 6.20061
7540 2 73.347 4.80682 6.20061
9108 2 76.536 3.68436 6.20061
7542 2 76.536 4.80682 6.20061
9109 2 79.725 3.68436 6.20061
7544 2 79.725 4.80682 6.20061
9110 2 82.914 3.68436 6.20061
7546 2 82.914 4.80682 6.20061
9111 2 86.103 3.68436 6.20061
7548 2 86.103 4.80682 6.20061
9112 2 89.292 3.68436 6.20061
7550 2 89.292 4.80682 6.20061
9113 2 92.481 3.68436 6.20061
7552 2 92.481 4.80682 6.20061
9114 2 95.67 3.68436 6.20061
7554 2 95.67 4.80682 6.20061
9115 2 98.859 3.68436 6.20061
7556 2 98.859 4.80682 6.20061
9116 2 102.048 3.68436 6.20061
7558 2 102.048 4.80682 6.20061
9117 2 105.237 3.68436 6.20061
7560 2 105.237 4.80682 6.20061
9118 2 108.426 3.68436 6.20061
7562 2 108.426 4.80682 6.20061
9119 2 111.615 3.68436 6.20061
7564 2 111.615 4.80682 6.20061
9120 2 114.804 3.68436 6.20061
7566 2 114.804 4.80682 6.20061
9121 2 117.993 3.68436 6.20061
7568 2 117.993 4.80682 6.20061
9122 2 121.182 3.68436 6.20061
7570 2 121.182 4.80682 6.20061
9123 2 124.371 3.68436 6.20061
7572 2 124.371 4.80682 6.20061
9124 2 127.56 3.68436 6.20061
7574 2 127.56 4.80682 6.20061
9125 2 130.749 3.68436 6.20061
7576 2 130.749 4.80682 6.20061
9126 2 133.938 3.68436 6.20061
7578 2 133.938 4.80682 6.20061
9127 2 137.127 3.68436 6.20061
7580 2 137.127 4.80682 6.20061
9128 2 140.316 3.68436 6.20061
7582 2 140.316 4.80682 6.20061
9129 2 143.505 3.68436 6.20061
7584 2 143.505 4.80682 6.20061
9130 2 146.694 3.68436 6.20061
7586 2 146.694 4.80682 6.20061
9131 2 149.883 3.68436 6.20061
7588 2 149.883 4.80682 6.20061
9132 2 153.072 3.68436 6.20061
7590 2 153.072 4.80682 6.20061
9133 2 156.261 3.68436 6.20061
7592 2 156.261 4.80682 6.20061
9134 2 159.45 3.68436 6.20061
7594 2 159.45 4.80682 6.20061
9135 2 162.639 3.68436 6.20061
7596 2 162.639 4.80682 6.20061
9136 2 165.828 3.68436 6.20061
7598 2 165.828 4.80682 6.20061
9137 2 169.017 3.68436 6.20061
7600 2 169.017 4.80682 6.20061
9138 2 172.206 3.68436 6.20061
7602 2 172.206 4.80682 6.20061
9139 2 175.395 3.68436 6.20061
7604 2 175.395 4.80682 6.20061
9140 2 178.584 3.68436 6.20061
7606 2 178.584 4.80682 6.20061
9141 2 181.773 3.68436 6.20061
7608 2 181.773 4.80682 6.20061
9142 2 184.962 3.68436 6.20061
7610 2 184.962 4.80682 6.20061
9143 2 188.151 3.68436 6.20061
7612 2 188.151 4.80682 6.20061
9144 2 191.34 3.68436 6.20061
7614 2 191.34 4.80682 6.20061
9145 2 194.529 3.68436 6.20061
7616 2 194.529 4.80682 6.20061
9146 2 197.718 3.68436 6.20061
7618 2 197.718 4.80682 6.20061
9147 2 200.907 3.68436 6.20061
7620 2 200.907 4.80682 6.20061
9148 2 204.096 3.68436 6.20061
7622 2 204.096 4.80682 6.20061
9149 2 207.285 3.68436 6.20061
7624 2 207.285 4.80682 6.20061
9150 2 210.474 3.68436 6.20061
7626 2 210.474 4.80682 6.20061
7628 2 1.5945 7.01066 6.20061
7630 2 4.7835 7.01066 6.20061
7632 2 7.9725 7.01066 6.20061
7634 2 11.1615 7.01066 6.20061
7636 2 14.3505 7.01066 6.20061
7638 2 17.5395 7.01066 6.20061
7640 2 20.7285 7.01066 6.20061
7642 2 23.9175 7.01066 6.20061
7644 2 27.1065 7.01066 6.20061
7646 2 30.2955 7.01066 6.20061
7648 2 33.4845 7.01066 6.20061
7650 2 36.6735 7.01066 6.20061
7652 2 39.8625 7.01066 6.20061
7654 2 43.0515 7.01066 6.20061
7656 2 46.2405 7.01066 6.20061
7658 2 49.4295 7.01066 6.20061
7660 2 52.6185 7.01066 6.20061
7662 2 55.8075 7.01066 6.20061
7664 2 58.9965 7.01066 6.20061
7666 2 62.1855 7.01066 6.20061
7668 2 65.3745 7.01066 6.20061
7670 2 68.5635 7.01066 6.20061
7672 2 71.7525 7.01066 6.20061
7674 2 74.9415 7.01066 6.20061
7676 2 78.1305 7.01066 6.20061
7678 2 81.3195 7.01066 6.20061
7680 2 84.5085 7.01066 6.20061
7682 2 87.6975 7.01066 6.20061
7684 2 90.8865 7.01066 6.20061
7686 2 94.0755 7.01066 6.20061
7688 2 97.2645 7.01066 6.20061
7690 2 100.454 7.01066 6.20061
7692 2 103.642 7.01066 6.20061
7694 2 106.832 7.01066 6.20061
7696 2 110.02 7.01066 6.20061
7698 2 113.21 7.01066 6.20061
7700 2 116.398 7.01066 6.20061
7702 2 119.588 7.01066 6.20061
7704 2 122.776 7.01066 6.20061
7706 2 125.966 7.01066 6.20061
7708 2 129.155 7.01066 6.20061
7710 2 132.344 7.01066 6.20061
7712 2 135.532 7.01066 6.20061
7714 2 138.721 7.01066 6.20061
7716 2 141.911 7.01066 6.20061
7718 2 145.1 7.01066 6.20061
7720 2 148.288 7.01066 6.20061
7722 2 151.477 7.01066 6.20061
7724 2 154.667 7.01066 6.20061
7726 2 157.856 7.01066 6.20061
7728 2 161.044 7.01066 6.20061
7730 2 164.233 7.01066 6.20061
7732 2 167.423 7.01066 6.20061
7734 2 170.612 7.01066 6.20061
7736 2 173.8 7.01066 6.20061
7738 2 176.989 7.01066 6.20061
7740 2 180.179 7.01066 6.20061
7742 2 183.368 7.01066 6.20061
7744 2 186.556 7.01066 6.20061
7746 2 189.745 7.01066 6.20061
7748 2 192.935 7.01066 6.20061
7750 2 196.124 7.01066 6.20061
7752 2 199.312 7.01066 6.20061
7754 2 202.501 7.01066 6.20061
7756 2 205.691 7.01066 6.20061
7758 2 208.88 7.01066 6.20061
7759 2 0 9.77241 6.20061
7761 2 3.189 9.77241 6.20061
7763 2 6.378 9.77241 6.20061
7765 2 9.567 9.77241 6.20061
7767 2 12.756 9.77241 6.20061
7769 2 15.945 9.77241 6.20061
7771 2 19.134 9.77241 6.20061
7773 2 22.323 9.77241 6.20061
7775 2 25.512 9.77241 6.20061
7777 2 28.701 9.77241 6.20061
7779 2 31.89 9.77241 6.20061
7781 2 35.079 9.77241 6.20061
7783 2 38.268 9.77241 6.20061
7785 2 41.457 9.77241 6.20061
7787 2 44.646 9.77241 6.20061
7789 2 47.835 9.77241 6.20061
7791 2 51.024 9.77241 6.20061
7793 2 54.213 9.77241 6.20061
7795 2 57.402 9.77241 6.20061
7797 2 60.591 9.77241 6.20061
7799 2 63.78 9.77241 6.20061
7801 2 66.969 9.77241 6.20061
7803 2 70.158 9.77241 6.20061
7805 2 73.347 9.77241 6.20061
7807 2 76.536 9.77241 6.20061
7809 2 79.725 9.77241 6.20061
7811 2 82.914 9.77241 6.20061
7813 2 86.103 9.77241 6.20061
7815 2 89.292 9.77241 6.20061
7817 2 92.481 9.77241 6.20061
7819 2 95.67 9.77241 6.20061
7821 2 98.859 9.77241 6.20061
7823 2 102.048 9.77241 6.20061
7825 2 105.237 9.77241 6.20061
7827 2 108.426 9.77241 6.20061
7829 2 111.615 9.77241 6.20061
7831 2 114.804 9.77241 6.20061
7833 2 117.993 9.77241 6.20061
7835 2 121.182 9.77241 6.20061
7837 2 124.371 9.77241 6.20061
7839 2 127.56 9.77241 6.20061
7841 2 130.749 9.77241 6.20061
7843 2 133.938 9.77241 6.20061
7845 2 137.127 9.77241 6.20061
7847 2 140.316 9.77241 6.20061
7849 2 143.505 9.77241 6.20061
7851 2 146.694 9.77241 6.20061
7853 2 149.883 9.77241 6.20061
7855 2 153.072 9.77241 6.20061
7857 2 156.261 9.77241 6.20061
7859 2 159.45 9.77241 6.20061
7861 2 162.639 9.77241 6.20061
7863 2 165.828 9.77241 6.20061
7865 2 169.017 9.77241 6.20061
7867 2 172.206 9.77241 6.20061
7869 2 175.395 9.77241 6.20061
7871 2 178.584 9.77241 6.20061
7873 2 181.773 9.77241 6.20061
7875 2 184.962 9.77241 6.20061
7877 2 188.151 9.77241 6.20061
7879 2 191.34 9.77241 6.20061
7881 2 194.529 9.77241 6.20061
7883 2 197.718 9.77241 6.20061
7885 2 200.907 9.77241 6.20061
7887 2 204.096 9.77241 6.20061
7889 2 207.285 9.77241 6.20061
7891 2 210.474 9.77241 6.20061
7893 2 1.5945 12.5342 6.20061
7895 2 4.7835 12.5342 6.20061
7897 2 7.9725 12.5342 6.20061
7899 2 11.1615 12.5342 6.20061
7901 2 14.3505 12.5342 6.20061
7903 2 17.5395 12.5342 6.20061
7905 2 20.7285 12.5342 6.20061
7907 2 23.9175 12.5342 6.20061
7909 2 27.1065 12.5342 6.20061
7911 2 30.2955 12.5342 6.20061
7913 2 33.4845 12.5342 6.20061
7915 2 36.6735 12.5342 6.20061
7917 2 39.8625 12.5342 6.20061
7919 2 43.0515 12.5342 6.20061
7921 2 46.2405 12.5342 6.20061
7923 2 49.4295 12.5342 6.20061
7925 2 52.6185 12.5342 6.20061
7927 2 55.8075 12.5342 6.20061
7929 2 58.9965 12.5342 6.20061
7931 2 62.1855 12.5342 6.20061
7933 2 65.3745 12.5342 6.20061
7935 2 68.5635 12.5342 6.20061
7937 2 71.7525 12.5342 6.20061
7939 2 74.9415 12.5342 6.20061
7941 2 78.1305 12.5342 6.20061
7943 2 81.3195 12.5342 6.20061
7945 2 84.5085 12.5342 6.20061
7947 2 87.6975 12.5342 6.20061
7949 2 90.8865 12.5342 6.20061
7951 2 94.0755 12.5342 6.20061
7953 2 97.2645 12.5342 6.20061
7955 2 100.454 12.5342 6.20061
7957 2 103.642 12.5342 6.20061
7959 2 106.832 12.5342 6.20061
7961 2 110.02 12.5342 6.20061
7963 2 113.21 12.5342 6.20061
7965 2 116.398 12.5342 6.20061