LAMMPS (2 Apr 2025)
OMP_NUM_THREADS environment is not set. Defaulting to 1 thread. (src/comm.cpp:99)
  using 1 OpenMP thread(s) per MPI task
Loaded 1 plugins from C:\Users\Abhiraj\AppData\Local\LAMMPS 64-bit 2Apr2025 with Python\plugins
units     metal
atom_style charge
boundary   s s s
read_data  GaN_nanobelt.data
Reading data file ...
  orthogonal box = (-0.0210474 -0.003314106 -0.006613986) to (210.49505 33.144374 66.146474)
  1 by 1 by 1 MPI processor grid
  reading atoms ...
  14121 atoms
  reading velocities ...
  14121 velocities
  read_data CPU = 0.098 seconds

pair_style sw
pair_coeff * * GaN.sw Ga N

neighbor 2.0 bin
neigh_modify delay 0 every 1 check yes

minimize 1.0e-6 1.0e-8 10000 100000
Neighbor list info ...
  update: every = 1 steps, delay = 0 steps, check = yes
  max neighbors/atom: 2000, page size: 100000
  master list distance cutoff = 3.8
  ghost atom cutoff = 3.8
  binsize = 1.9, bins = 111 18 35
  1 neighbor lists, perpetual/occasional/extra = 1 0 0
  (1) pair sw, perpetual
      attributes: full, newton on
      pair build: full/bin/atomonly
      stencil: full/bin/3d
      bin: standard
Per MPI rank memory allocation (min/avg/max) = 5.179 | 5.179 | 5.179 Mbytes
   Step          Temp          E_pair         E_mol          TotEng         Press          Volume    
         0   0              0              0              0              0              461624.37    
         1   0              0              0              0              0              461624.37    
Loop time of 0.000987 on 1 procs for 1 steps with 14121 atoms

0.0% CPU use with 1 MPI tasks x 1 OpenMP threads

Minimization stats:
  Stopping criterion = search direction is not downhill
  Energy initial, next-to-last, final = 
                     0                  0                  0
  Force two-norm initial, final = 0 0
  Force max component initial, final = 0 0
  Final line search alpha, max atom move = 0 0
  Iterations, force evaluations = 1 0

MPI task timing breakdown:
Section |  min time  |  avg time  |  max time  |%varavg| %total
---------------------------------------------------------------
Pair    | 0.000697   | 0.000697   | 0.000697   |   0.0 | 70.62
Neigh   | 0          | 0          | 0          |   0.0 |  0.00
Comm    | 1e-06      | 1e-06      | 1e-06      |   0.0 |  0.10
Output  | 0          | 0          | 0          |   0.0 |  0.00
Modify  | 0          | 0          | 0          |   0.0 |  0.00
Other   |            | 0.000289   |            |       | 29.28

Nlocal:          14121 ave       14121 max       14121 min
Histogram: 1 0 0 0 0 0 0 0 0 0
Nghost:              0 ave           0 max           0 min
Histogram: 1 0 0 0 0 0 0 0 0 0
Neighs:              0 ave           0 max           0 min
Histogram: 1 0 0 0 0 0 0 0 0 0
FullNghs:       117304 ave      117304 max      117304 min
Histogram: 1 0 0 0 0 0 0 0 0 0

Total # of neighbors = 117304
Ave neighs/atom = 8.3070604
Neighbor list builds = 0
Dangerous builds = 0

timestep 0.001

fix nvt all nvt temp 300.0 300.0 0.1
run 100000
Per MPI rank memory allocation (min/avg/max) = 4.054 | 4.054 | 4.054 Mbytes
   Step          Temp          E_pair         E_mol          TotEng         Press          Volume    
         1   0              0              0              0              0              461624.37    
    100001   0              0              0              0              0              461624.37    
Loop time of 50.3005 on 1 procs for 100000 steps with 14121 atoms

Performance: 171.768 ns/day, 0.140 hours/ns, 1988.053 timesteps/s, 28.073 Matom-step/s
92.5% CPU use with 1 MPI tasks x 1 OpenMP threads

MPI task timing breakdown:
Section |  min time  |  avg time  |  max time  |%varavg| %total
---------------------------------------------------------------
Pair    | 33.77      | 33.77      | 33.77      |   0.0 | 67.14
Neigh   | 0          | 0          | 0          |   0.0 |  0.00
Comm    | 0.013134   | 0.013134   | 0.013134   |   0.0 |  0.03
Output  | 0.000676   | 0.000676   | 0.000676   |   0.0 |  0.00
Modify  | 14.529     | 14.529     | 14.529     |   0.0 | 28.88
Other   |            | 1.988      |            |       |  3.95

Nlocal:          14121 ave       14121 max       14121 min
Histogram: 1 0 0 0 0 0 0 0 0 0
Nghost:              0 ave           0 max           0 min
Histogram: 1 0 0 0 0 0 0 0 0 0
Neighs:              0 ave           0 max           0 min
Histogram: 1 0 0 0 0 0 0 0 0 0
FullNghs:       117304 ave      117304 max      117304 min
Histogram: 1 0 0 0 0 0 0 0 0 0

Total # of neighbors = 117304
Ave neighs/atom = 8.3070604
Neighbor list builds = 0
Dangerous builds = 0
unfix nvt

variable efield equal 1.0  # CHANGE THIS VALUE PER RUN
fix efield all efield 0.0 0.0 ${efield}
fix efield all efield 0.0 0.0 1

fix nvt2 all nvt temp 300.0 300.0 0.1
run 100000
Per MPI rank memory allocation (min/avg/max) = 4.054 | 4.054 | 4.054 Mbytes
   Step          Temp          E_pair         E_mol          TotEng         Press          Volume    
    100001   0              0              0              0              0              461624.37    
    200001   613.19756     -6406.6415      0             -5287.462       419.57821      14568155     
Loop time of 125.94 on 1 procs for 100000 steps with 14121 atoms

Performance: 68.604 ns/day, 0.350 hours/ns, 794.026 timesteps/s, 11.212 Matom-step/s
91.5% CPU use with 1 MPI tasks x 1 OpenMP threads

MPI task timing breakdown:
Section |  min time  |  avg time  |  max time  |%varavg| %total
---------------------------------------------------------------
Pair    | 85.551     | 85.551     | 85.551     |   0.0 | 67.93
Neigh   | 6.4456     | 6.4456     | 6.4456     |   0.0 |  5.12
Comm    | 0.30028    | 0.30028    | 0.30028    |   0.0 |  0.24
Output  | 0.000395   | 0.000395   | 0.000395   |   0.0 |  0.00
Modify  | 31.422     | 31.422     | 31.422     |   0.0 | 24.95
Other   |            | 2.221      |            |       |  1.76

Nlocal:          14121 ave       14121 max       14121 min
Histogram: 1 0 0 0 0 0 0 0 0 0
Nghost:              0 ave           0 max           0 min
Histogram: 1 0 0 0 0 0 0 0 0 0
Neighs:              0 ave           0 max           0 min
Histogram: 1 0 0 0 0 0 0 0 0 0
FullNghs:       167152 ave      167152 max      167152 min
Histogram: 1 0 0 0 0 0 0 0 0 0

Total # of neighbors = 167152
Ave neighs/atom = 11.837122
Neighbor list builds = 2006
Dangerous builds = 0
unfix nvt2

region mid block INF INF INF INF 10 12 units box
group middle region mid
792 atoms in group middle

fix bend middle addforce 0.0 0.02 0.0
run 5000
WARNING: No fixes with time integration, atoms won't move
For more information see https://docs.lammps.org/err0028 (src/verlet.cpp:60)
Per MPI rank memory allocation (min/avg/max) = 14.91 | 14.91 | 14.91 Mbytes
   Step          Temp          E_pair         E_mol          TotEng         Press          Volume    
    200001   613.19756     -6406.6415      0             -5287.462       419.39573      14574493     
    205001   613.19756     -6406.6415      0             -5287.462       419.39573      14574493     
Loop time of 5.18922 on 1 procs for 5000 steps with 14121 atoms

Performance: 83.250 ns/day, 0.288 hours/ns, 963.536 timesteps/s, 13.606 Matom-step/s
94.5% CPU use with 1 MPI tasks x 1 OpenMP threads

MPI task timing breakdown:
Section |  min time  |  avg time  |  max time  |%varavg| %total
---------------------------------------------------------------
Pair    | 4.2204     | 4.2204     | 4.2204     |   0.0 | 81.33
Neigh   | 0          | 0          | 0          |   0.0 |  0.00
Comm    | 0.000735   | 0.000735   | 0.000735   |   0.0 |  0.01
Output  | 0.000514   | 0.000514   | 0.000514   |   0.0 |  0.01
Modify  | 0.86787    | 0.86787    | 0.86787    |   0.0 | 16.72
Other   |            | 0.09971    |            |       |  1.92

Nlocal:          14121 ave       14121 max       14121 min
Histogram: 1 0 0 0 0 0 0 0 0 0
Nghost:              0 ave           0 max           0 min
Histogram: 1 0 0 0 0 0 0 0 0 0
Neighs:              0 ave           0 max           0 min
Histogram: 1 0 0 0 0 0 0 0 0 0
FullNghs:       167152 ave      167152 max      167152 min
Histogram: 1 0 0 0 0 0 0 0 0 0

Total # of neighbors = 167152
Ave neighs/atom = 11.837122
Neighbor list builds = 0
Dangerous builds = 0
unfix bend

unfix efield

fix nve all nve

# ---------- Compute Stress Tensor ----------
compute stress all stress/atom NULL
compute pzz all reduce sum c_stress[3]
variable lz equal lz
variable area equal lx*ly
variable stress_z equal c_pzz/v_area  # stress in GPa

thermo 100
thermo_style custom step temp v_stress_z pe ke etotal

# ---------- Set Dump Directory Based on E-field ----------
variable dumpdir string dump_vibrate_${efield}
variable dumpdir string dump_vibrate_1
shell mkdir ${dumpdir}
shell mkdir dump_vibrate_1

# ---------- Dump Vibrate Files to Specified Folder ----------
dump 1 all custom 100 ${dumpdir}/dump.vibrate.* id type x y z
dump 1 all custom 100 dump_vibrate_1/dump.vibrate.* id type x y z

run 500000
Per MPI rank memory allocation (min/avg/max) = 15.66 | 15.66 | 15.66 Mbytes
   Step          Temp        v_stress_z       PotEng         KinEng         TotEng    
    205001   613.19756     -2627847.4     -6406.6415      1119.1795     -5287.462     
    205100   636.52587     -2422870.5     -6449.4591      1161.7573     -5287.7019    
    205200   703.06746     -1632573.2     -6571.5131      1283.2059     -5288.3073    
    205300   733.81448     -554914.96     -6627.8029      1339.3239     -5288.4791    
    205400   699.77439      460212.94     -6565.3525      1277.1955     -5288.157     
    205500   641.0338       1160095.4     -6457.7399      1169.9849     -5287.755     
    205600   613.19921      1409382.4     -6406.77        1119.1825     -5287.5874    
    205700   640.27621      1167338.4     -6456.3525      1168.6022     -5287.7503    
    205800   698.92894      473459.67     -6563.8029      1275.6524     -5288.1505    
    205900   733.74874     -538513.84     -6627.6809      1339.2039     -5288.4771    
    206000   703.96513     -1617661.3     -6573.1586      1284.8442     -5288.3143    
    206100   637.37953     -2414928.6     -6451.0257      1163.3153     -5287.7104    
    206200   615.40722     -2609332       -6410.6977      1123.2125     -5287.4852    
    206300   667.00814     -2113478.3     -6505.3881      1217.3921     -5287.996     
    206400   725.60906     -1143008.5     -6612.8131      1324.3477     -5288.4654    
    206500   724.66628     -55429.406     -6610.9942      1322.627      -5288.3672    
    206600   671.7428       836637.11     -6513.9884      1226.0335     -5287.9549    
    206700   621.67484      1336824.3     -6422.2891      1134.6519     -5287.6373    
    206800   619.33406      1357128.1     -6418.003       1130.3796     -5287.6234    
    206900   666.71509      894311.16     -6504.7781      1216.8572     -5287.9209    
    207000   721.67556      28663.095     -6605.5074      1317.1685     -5288.3389    
    207100   728.19306     -1053213.5     -6617.543       1329.0639     -5288.4791    
    207200   672.8047      -2047109       -6516.0208      1227.9717     -5288.0491    
    207300   617.28366     -2593473.2     -6414.1422      1126.6373     -5287.5049    
    207400   632.83108     -2456850.9     -6442.6783      1155.0137     -5287.6647    
    207500   698.91821     -1698835.2     -6563.907       1275.6328     -5288.2741    
    207600   733.91263     -628873.33     -6627.9897      1339.503      -5288.4867    
    207700   703.50324      399738.22     -6572.1871      1284.0012     -5288.1859    
    207800   644.53282      1126254.7     -6464.1481      1176.3712     -5287.7769    
    207900   613.3624       1408009.8     -6407.0688      1119.4804     -5287.5884    
    208000   636.96622      1198647.3     -6450.2907      1162.561      -5287.7298    
    208100   695.06051      532131.33     -6556.7131      1268.5919     -5288.1212    
    208200   733.25774     -464965.08     -6626.7743      1338.3078     -5288.4665    
    208300   707.8814      -1549823.5     -6580.3366      1291.992      -5288.3445    
    208400   641.35268     -2377495.3     -6458.3169      1170.5669     -5287.75      
    208500   614.29138     -2618703.2     -6408.6494      1121.1759     -5287.4735    
    208600   662.29547     -2165346       -6496.7429      1208.7907     -5287.9521    
    208700   723.15749     -1215920.6     -6608.3242      1319.8732     -5288.451     
    208800   726.83277     -125266.9      -6614.9699      1326.5812     -5288.3888    
    208900   675.87793      787438.19     -6521.5641      1233.5808     -5287.9833    
    209000   623.84949      1317771.8     -6426.2712      1138.6209     -5287.6502    
    209100   617.68785      1371283.9     -6414.9887      1127.375      -5287.6137    
    209200   662.64597      939433.69     -6497.3242      1209.4304     -5287.8937    
    209300   718.96618      96329.929     -6600.5378      1312.2235     -5288.3143    
    209400   729.95907     -979331.13     -6620.7742      1332.2872     -5288.487     
    209500   677.5408      -1990507.6     -6524.7075      1236.6158     -5288.0918    
    209600   619.22512     -2576930.7     -6417.7058      1130.1807     -5287.5251    
    209700   629.39232     -2487924.3     -6436.3672      1148.7374     -5287.6298    
    209800   694.60424     -1763678.6     -6555.998       1267.7592     -5288.2388    
    209900   733.68484     -703059.16     -6627.579       1339.0873     -5288.4917    
    210000   707.09665      337853.58     -6578.7742      1290.5598     -5288.2144    
    210100   648.17007      1090370.8     -6470.8096      1183.0097     -5287.7999    
    210200   613.79197      1404392.1     -6407.8553      1120.2644     -5287.5909    
    210300   633.82637      1227858.8     -6444.5408      1156.8303     -5287.7105    
    210400   691.0994       589265.66     -6549.4541      1261.3623     -5288.0918    
    210500   732.45188     -391856.2      -6625.2907      1336.8369     -5288.4538    
    210600   711.58306     -1480825.7     -6587.1203      1298.7481     -5288.3722    
    210700   645.52362     -2337325.5     -6465.9706      1178.1795     -5287.7911    
    210800   613.5616      -2624808.7     -6407.3098      1119.8439     -5287.4659    
    210900   657.64193     -2214915.1     -6488.2055      1200.2973     -5287.9082    
    211000   720.41382     -1288216.1     -6603.2993      1314.8656     -5288.4337    
    211100   728.73223     -195954.71     -6618.4567      1330.048      -5288.4087    
    211200   680.0123       736471.39     -6529.1388      1241.1267     -5288.0121    
    211300   626.24836      1296536.2     -6430.6638      1142.9992     -5287.6646    
    211400   616.29074      1383219.5     -6412.4306      1124.8251     -5287.6055    
    211500   658.63621      982660.54     -6489.9793      1202.112      -5287.8673    
    211600   716.03743      162899.51     -6595.1667      1306.878      -5288.2887    
    211700   731.40464     -905188.67     -6623.4176      1334.9255     -5288.4921    
    211800   682.23957     -1931950.4     -6533.3251      1245.1918     -5288.1333    
    211900   621.51761     -2557216.5     -6421.9138      1134.3649     -5287.5489    
    212000   626.2334      -2516023       -6430.5694      1142.9719     -5287.5975    
    212100   690.1504      -1826987.7     -6547.8317      1259.6302     -5288.2015    
    212200   733.12886     -777373.1      -6626.5667      1338.0725     -5288.4942    
    212300   710.53587      274620.45     -6585.0792      1296.8369     -5288.2424    
    212400   651.92999      1052471.3     -6477.696       1189.8721     -5287.8239    
    212500   614.48622      1398531.7     -6409.1265      1121.5315     -5287.5949    
    212600   630.86977      1254951.6     -6439.1265      1151.434      -5287.6925    
    212700   687.06514      644809.32     -6542.0615      1253.9992     -5288.0624    
    212800   731.3387      -319278.9      -6623.2441      1334.8052     -5288.4389    
    212900   715.05028     -1410784.4     -6593.4735      1305.0763     -5288.3972    
    213000   649.86423     -2294503.9     -6473.9353      1186.1018     -5287.8335    
    213100   613.22309     -2627634.5     -6406.6884      1119.2261     -5287.4623    
    213200   653.07776     -2262085.7     -6479.8315      1191.967      -5287.8645    
    213300   717.39097     -1359781.6     -6597.7619      1309.3484     -5288.4135    
    213400   730.35209     -267410.63     -6621.4314      1333.0045     -5288.4269    
    213500   684.12662      683781.14     -6536.6772      1248.6359     -5288.0413    
    213600   628.86168      1273132.5     -6435.4493      1147.7689     -5287.6803    
    213700   615.14834      1392926.8     -6410.3388      1122.74       -5287.5988    
    213800   654.70358      1023956.6     -6482.7761      1194.9344     -5287.8418    
    213900   712.90597      228300.74     -6589.4247      1301.1626     -5288.262     
    214000   732.52511     -830893.15     -6625.4649      1336.9706     -5288.4943    
    214100   686.87217     -1871548.7     -6541.8205      1253.647      -5288.1735    
    214200   624.14497     -2534374.6     -6426.7362      1139.1602     -5287.576     
    214300   623.37627     -2541085.4     -6425.3253      1137.7572     -5287.5681    
    214400   685.58283     -1888647.4     -6539.4561      1251.2937     -5288.1624    
    214500   732.24422     -851713.58     -6624.9519      1336.4579     -5288.494     
    214600   713.80258      210102.83     -6591.0687      1302.7991     -5288.2696    
    214700   655.79637      1012585.7     -6484.7777      1196.9289     -5287.8488    
    214800   615.44238      1390432.7     -6410.8772      1123.2767     -5287.6005    
    214900   628.10864      1279905.9     -6434.0703      1146.3945     -5287.6758    
    215000   682.97729      698711.45     -6534.5713      1246.5382     -5288.0331    
    215100   729.92721     -247322.33     -6620.651       1332.229      -5288.422     
    215200   718.26503     -1339815.4     -6599.3632      1310.9437     -5288.4194    
    215300   654.34549     -2249120.1     -6482.1575      1194.2808     -5287.8767    
    215400   613.27827     -2627174.1     -6406.7897      1119.3268     -5287.4629    
    215500   648.63293     -2306761       -6471.676       1183.8545     -5287.8215    
    215600   714.10378     -1430502.3     -6591.7393      1303.3488     -5288.3905    
    215700   731.68101     -339549.92     -6623.8732      1335.43       -5288.4433    
    215800   688.20143      629414.21     -6544.1437      1256.0731     -5288.0706    
    215900   631.67875      1247577.3     -6440.6079      1152.9105     -5287.6974    
    216000   614.26521      1400399.2     -6408.7218      1121.1281     -5287.5937    
    216100   650.86535      1063289       -6475.7461      1187.929      -5287.8171    
    216200   709.58912      292465.15     -6583.3435      1295.1089     -5288.2346    
    216300   733.31774     -756549.74     -6626.911       1338.4173     -5288.4938    
    216400   691.41059     -1809415.4     -6550.1424      1261.9303     -5288.2121    
    216500   627.08873     -2508455.8     -6432.1393      1144.533      -5287.6062    
    216600   620.84095     -2563056.1     -6420.6718      1133.1299     -5287.5419    
    216700   680.92883     -1948543.8     -6530.9213      1242.7995     -5288.1218    
    216800   731.03233     -925976.91     -6622.737       1334.246      -5288.4909    
    216900   716.87898      144367.32     -6596.71        1308.414      -5288.296     
    217000   659.75237      970745.35     -6492.0238      1204.1492     -5287.8747    
    217100   616.65663      1380100.5     -6413.1005      1125.4929     -5287.6077    
    217200   625.55435      1302703.9     -6429.393       1141.7325     -5287.6604    
    217300   678.8554       750923.55     -6527.0191      1239.0151     -5288.004     
    217400   728.22783     -176073.13     -6617.5307      1329.1274     -5288.4033    
    217500   721.21109     -1268033.9     -6604.7596      1316.3208     -5288.4388    
    217600   658.93773     -2201267.8     -6490.5828      1202.6623     -5287.9205    
    217700   613.72674     -2623428.7     -6407.613       1120.1454     -5287.4676    
    217800   644.33695     -2348848.6     -6463.7931      1176.0137     -5287.7794    
    217900   710.569       -1500263.1     -6585.262       1296.8973     -5288.3647    
    218000   732.70895     -412285.22     -6625.7637      1337.3061     -5288.4576    
    218100   692.21717      573419.74     -6551.5025      1263.4024     -5288.1       
    218200   634.68795      1219889       -6446.1186      1158.4028     -5287.7158    
    218300   613.64486      1405631.7     -6407.586       1119.9959     -5287.59      
    218400   647.13818      1100626.8     -6468.9197      1181.1263     -5287.7933    
    218500   706.10484      355326.89     -6576.956       1288.7495     -5288.2065    
    218600   733.78167     -682261.54     -6627.7546      1339.264      -5288.4906    
    218700   695.82783     -1745664.9     -6558.2413      1269.9924     -5288.2489    
    218800   630.32834     -2479517.3     -6438.0851      1150.4458     -5287.6393    
    218900   618.64526     -2581886       -6416.6415      1129.1224     -5287.5191    
    219000   676.21666     -2006564.3     -6522.2789      1234.199      -5288.0799    
    219100   729.49645     -1000057.4     -6619.9279      1331.4428     -5288.4851    
    219200   719.74792      77483.105     -6601.9716      1313.6503     -5288.3213    
    219300   663.78057      926983.87     -6499.4025      1211.5013     -5287.9013    
    219400   618.12412      1367542.1     -6415.7875      1128.1713     -5287.6163    
    219500   623.21734      1323329.4     -6425.1136      1137.4671     -5287.6465    
    219600   674.71888      801399.53     -6519.4406      1231.4654     -5287.9753    
    219700   726.25226     -105615.34     -6613.9045      1325.5217     -5288.3829    
    219800   723.87416     -1195554.3     -6609.6366      1321.1813     -5288.4553    
    219900   663.61089     -2151044.5     -6499.156       1211.1916     -5287.9645    
    220000   614.56531     -2616406.7     -6409.1523      1121.6759     -5287.4764    
    220100   640.21862     -2388260.3     -6456.2358      1168.4971     -5287.7387    
    220200   706.80515     -1568947.7     -6578.364       1290.0277     -5288.3363    
    220300   733.42731     -485526.66     -6627.087       1338.6172     -5288.4697    
    220400   696.15428      515849.31     -6558.7177      1270.5883     -5288.1294    
    220500   637.87681      1190087.8     -6451.9584      1164.2229     -5287.7354    
    220600   613.28978      1408620.7     -6406.9358      1119.3478     -5287.588     
    220700   643.53811      1135941       -6462.3263      1174.5557     -5287.7707    
    220800   702.47158      416822.68     -6570.2961      1282.1183     -5288.1778    
    220900   733.91786     -608129.5      -6627.9974      1339.5126     -5288.4848    
    221000   700.09811     -1680412.4     -6566.07        1277.7863     -5288.2837    
    221100   633.84128     -2447622.6     -6444.5323      1156.8575     -5287.6749    
    221200   616.80471     -2597533.1     -6413.263       1125.7631     -5287.4999    
    221300   671.47538     -2062598.2     -6513.5825      1225.5455     -5288.037     
    221400   727.64179     -1073847.4     -6616.5341      1328.0578     -5288.4763    
    221500   722.39298      9522.0195     -6606.8235      1318.4779     -5288.3456    
    221600   667.86307      881336.91     -6506.881       1218.9524     -5287.9286    
    221700   619.83897      1352766.1     -6418.9275      1131.3011     -5287.6264    
    221800   621.10712      1341767.9     -6421.2496      1133.6157     -5287.6339    
    221900   670.58696      850095.59     -6511.871       1223.924      -5287.947     
    222000   724.01339     -36030.398     -6609.7963      1321.4354     -5288.3609    
    222100   726.24186     -1122489.7     -6613.9716      1325.5027     -5288.4689    
    222200   668.3347      -2098551.4     -6507.8215      1219.8132     -5288.0083    
    222300   615.78798     -2606124.1     -6411.3967      1123.9074     -5287.4892    
    222400   636.30578     -2424912.5     -6449.0552      1161.3556     -5287.6996    
    222500   702.83254     -1636439.8     -6571.0825      1282.7771     -5288.3054    
    222600   733.82896     -559181.88     -6627.8299      1339.3503     -5288.4796    
    222700   699.99327      456756.91     -6565.7536      1277.595      -5288.1586    
    222800   641.23201      1158195.5     -6458.1029      1170.3467     -5287.7562    
    222900   613.20137      1409364.2     -6406.7739      1119.1865     -5287.5874    
    223000   640.0805       1169204.8     -6455.9941      1168.245      -5287.7491    
    223100   698.70821      476891.81     -6563.3984      1275.2496     -5288.1488    
    223200   733.72904     -534252.35     -6627.6445      1339.1679     -5288.4765    
    223300   704.19696     -1613773.9     -6573.5835      1285.2674     -5288.3161    
    223400   637.60331     -2412840.9     -6451.4364      1163.7237     -5287.7126    
    223500   615.33234     -2609962.2     -6410.5603      1123.0758     -5287.4845    
    223600   666.73467     -2116537       -6504.8865      1216.8929     -5287.9935    
    223700   725.47551     -1147237.6     -6612.5686      1324.104      -5288.4647    
    223800   724.79854     -59441.485     -6611.2369      1322.8684     -5288.3685    
    223900   671.98149      833842.28     -6514.4257      1226.4692     -5287.9565    
    224000   621.79427      1335782.7     -6422.5078      1134.8698     -5287.638     
    224100   619.23224      1358006.6     -6417.8165      1130.1937     -5287.6228    
    224200   666.47859      896970.24     -6504.3448      1216.4256     -5287.9193    
    224300   721.52521      32602.867     -6605.2316      1316.8941     -5288.3375    
    224400   728.30376     -1048952       -6617.7456      1329.266      -5288.4796    
    224500   673.07895     -2043892.6     -6516.5239      1228.4722     -5288.0516    
    224600   617.38607     -2592604.1     -6414.3301      1126.8242     -5287.5059    
    224700   632.62511     -2458726.8     -6442.3003      1154.6378     -5287.6626    
    224800   698.67311     -1702622.9     -6563.4577      1275.1855     -5288.2722    
    224900   733.90837     -633156.06     -6627.9823      1339.4952     -5288.487     
    225000   703.71481      396199.06     -6572.5749      1284.3874     -5288.1876    
    225100   644.73944      1124235.9     -6464.5265      1176.7483     -5287.7782    
    225200   613.37999      1407861.8     -6407.101       1119.5125     -5287.5885    
    225300   636.77997      1200393.1     -6449.9497      1162.221      -5287.7286    
    225400   694.83389      535476.11     -6556.2978      1268.1783     -5288.1195    
    225500   733.21967     -460726.47     -6626.7041      1338.2383     -5288.4659    
    225600   708.1014      -1545865.8     -6580.7398      1292.3936     -5288.3462    
    225700   641.58864     -2375247.2     -6458.7499      1170.9976     -5287.7523    
    225800   614.23862     -2619145.2     -6408.5526      1121.0796     -5287.473     
    225900   662.02459     -2168274.7     -6496.2459      1208.2963     -5287.9496    
    226000   723.00674     -1220117.2     -6608.0482      1319.5981     -5288.4501    
    226100   726.94995     -129330.32     -6615.185       1326.7951     -5288.39      
    226200   676.1171       784540        -6522.0023      1234.0173     -5287.9849    
    226300   623.98213      1316603.7     -6426.514       1138.863      -5287.651     
    226400   617.60025      1372034.3     -6414.8283      1127.2151     -5287.6132    
    226500   662.41241      941984.19     -6496.8964      1209.0042     -5287.8922    
    226600   718.80271      100208.26     -6600.238       1311.9251     -5288.3129    
    226700   730.0514      -975051.7      -6620.9431      1332.4557     -5288.4874    
    226800   677.81368     -1987175.1     -6525.208       1237.1138     -5288.0942    
    226900   619.34821     -2575877.2     -6417.9318      1130.4054     -5287.5264    
    227000   629.2019      -2489630       -6436.0177      1148.3899     -5287.6278    
    227100   694.35036     -1767380.8     -6555.5325      1267.2958     -5288.2367    
    227200   733.66165     -707352.02     -6627.5369      1339.0449     -5288.492     
    227300   707.29982      334234.78     -6579.1466      1290.9306     -5288.216     
    227400   648.38421      1088234.8     -6471.2018      1183.4005     -5287.8012    
    227500   613.82492      1404114.4     -6407.9156      1120.3245     -5287.5911    
    227600   633.65037      1229482.7     -6444.2185      1156.509      -5287.7094    
    227700   690.86802      592519.93     -6549.0301      1260.94       -5288.0901    
    227800   732.39583     -387645.85     -6625.1876      1336.7346     -5288.453     
    227900   711.79003     -1476804.6     -6587.4996      1299.1259     -5288.3737    
    228000   645.77017     -2334921.7     -6466.423       1178.6295     -5287.7935    
    228100   613.53134     -2625061.4     -6407.2543      1119.7887     -5287.4655    
    228200   657.37539     -2217707.9     -6487.7165      1199.8108     -5287.9057    
    228300   720.24656     -1292373.6     -6602.9929      1314.5603     -5288.4326    
    228400   728.83358     -200064.78     -6618.6428      1330.233      -5288.4098    
    228500   680.25084      733472.35     -6529.5758      1241.562      -5288.0138    
    228600   626.39367      1295242.4     -6430.9299      1143.2644     -5287.6655    
    228700   616.21773      1383841.3     -6412.2969      1124.6918     -5287.6051    
    228800   658.40663      985100.37     -6489.5588      1201.693      -5287.8658    
    228900   715.86179      166712.22     -6594.8446      1306.5575     -5288.2872    
    229000   731.47829     -900897.49     -6623.5522      1335.06       -5288.4923    
    229100   682.50941     -1928508.3     -6533.8199      1245.6843     -5288.1357    
    229200   621.66052     -2555980.9     -6422.1761      1134.6257     -5287.5504    
    229300   626.05983     -2517554.9     -6430.2508      1142.6551     -5287.5957    
    229400   689.88923     -1830597.7     -6547.3529      1259.1536     -5288.1993    
    229500   733.08667     -781670.28     -6626.4898      1337.9955     -5288.4943    
    229600   710.72956      270925.64     -6585.4343      1297.1904     -5288.244     
    229700   652.15073      1050219.7     -6478.1003      1190.275      -5287.8253    
    229800   614.53439      1398124.5     -6409.2147      1121.6194     -5287.5952    
    229900   630.70474      1256452.3     -6438.8243      1151.1328     -5287.6915    
    230000   686.83013      647970.07     -6541.6309      1253.5702     -5288.0607    
    230100   731.26514     -315102.02     -6623.1089      1334.6709     -5288.438     
    230200   715.24314     -1406706.5     -6593.8269      1305.4283     -5288.3986    
    230300   650.1197      -2291949.6     -6474.404       1186.5681     -5287.836     
    230400   613.21555     -2627697.4     -6406.6746      1119.2123     -5287.4622    
    230500   652.81731     -2264736.8     -6479.3537      1191.4916     -5287.862     
    230600   717.20801     -1363893.4     -6597.4268      1309.0145     -5288.4122    
    230700   730.43692     -271562.54     -6621.5873      1333.1593     -5288.4279    
    230800   684.36341      680683.89     -6537.1111      1249.0681     -5288.043     
    230900   629.01907      1271713.8     -6435.7375      1148.0562     -5287.6813    
    231000   615.0902       1393419.6     -6410.2323      1122.6339     -5287.5985    
    231100   654.479        1026283.8     -6482.3648      1194.5245     -5287.8403    
    231200   712.71913      232043.8      -6589.0821      1300.8216     -5288.2605    
    231300   732.57987     -826596.37     -6625.5649      1337.0705     -5288.4944    
    231400   687.13732     -1868003.4     -6542.3067      1254.1309     -5288.1758    
    231500   624.30669     -2532959.8     -6427.0331      1139.4554     -5287.5777    
    231600   623.22079     -2542440.1     -6425.0399      1137.4734     -5287.5665    
    231700   685.31591     -1892158.6     -6538.9667      1250.8066     -5288.1601    
    231800   732.18306     -856009.15     -6624.8402      1336.3463     -5288.4939    
    231900   713.98575      206335.79     -6591.4045      1303.1334     -5288.2711    
    232000   656.02276      1010220.2     -6485.1924      1197.3421     -5287.8503    
    232100   615.50558      1389896.3     -6410.9929      1123.392      -5287.6009    
    232200   627.95526      1281282.5     -6433.7895      1146.1146     -5287.6749    
    232300   682.73979      701775.81     -6534.1361      1246.1047     -5288.0314    
    232400   729.83672     -243184.01     -6620.4848      1332.0639     -5288.421     
    232500   718.44278     -1335687.4     -6599.6888      1311.2682     -5288.4206    
    232600   654.60819     -2246420.5     -6482.6395      1194.7603     -5287.8792    
    232700   613.2935      -2627047       -6406.8177      1119.3546     -5287.463     
    232800   648.38029     -2309265       -6471.2124      1183.3934     -5287.819     
    232900   713.90604     -1434561.8     -6591.377       1302.9879     -5288.389     
    233000   731.74871     -343738.68     -6623.9977      1335.5535     -5288.4441    
    233100   688.43534      626221.53     -6544.5723      1256.5        -5288.0723    
    233200   631.84757      1246034.8     -6440.9171      1153.2186     -5287.6984    
    233300   614.22217      1400762.7     -6408.643       1121.0496     -5287.5934    
    233400   650.64673      1065501.8     -6475.3457      1187.53       -5287.8157    
    233500   709.39211      296134.69     -6582.9823      1294.7493     -5288.233     
    233600   733.35351     -752253.36     -6626.9762      1338.4825     -5288.4937    
    233700   691.66946     -1805773.5     -6550.6171      1262.4028     -5288.2143    
    233800   627.26814     -2506864.8     -6432.4686      1144.8605     -5287.6081    
    233900   620.70463     -2564230.4     -6420.4215      1132.8811     -5287.5405    
    234000   680.65777     -1951949.5     -6530.4241      1242.3047     -5288.1194    
    234100   730.95233     -930264.8      -6622.5907      1334.1        -5288.4907    
    234200   717.05062      140531.97     -6597.0247      1308.7273     -5288.2975    
    234300   659.98341      968267.89     -6492.447       1204.5709     -5287.8762    
    234400   616.73461      1379435.2     -6413.2433      1125.6352     -5287.6081    
    234500   625.41325      1303955.3     -6429.1346      1141.475      -5287.6596    
    234600   678.61652      753888.8      -6526.5815      1238.5791     -5288.0023    
    234700   728.12105     -171978.29     -6617.3347      1328.9325     -5288.4022    
    234800   721.37285     -1263862.5     -6605.0559      1316.616      -5288.4399    
    234900   659.20593     -2198428.5     -6491.0749      1203.1518     -5287.923     
    235000   613.76463     -2623111.9     -6407.6825      1120.2145     -5287.468     
    235100   644.0938      -2351200.4     -6463.3469      1175.5699     -5287.7771    
    235200   710.35749     -1504263.5     -6584.8744      1296.5113     -5288.3631    
    235300   732.75898     -416505.71     -6625.8558      1337.3974     -5288.4583    
    235400   692.44707      570134.55     -6551.9238      1263.822      -5288.1017    
    235500   634.8675       1218223.8     -6446.4474      1158.7305     -5287.7169    
    235600   613.6171       1405865.6     -6407.5351      1119.9452     -5287.5899    
    235700   646.92648      1102723.3     -6468.532       1180.74       -5287.792     
    235800   705.89871      358919.17     -6576.5782      1288.3733     -5288.2048    
    235900   733.79845     -677971.45     -6627.7849      1339.2946     -5288.4903    
    236000   696.0789      -1741933       -6558.7016      1270.4507     -5288.251     
    236100   630.52417     -2477753.7     -6438.4445      1150.8032     -5287.6413    
    236200   618.52907     -2582877.5     -6416.4282      1128.9103     -5287.5179    
    236300   675.94312     -2009858.2     -6521.7772      1233.6998     -5288.0775    
    236400   729.39787     -1004331.4     -6619.7475      1331.2629     -5288.4846    
    236500   719.90706      73583.536     -6602.2635      1313.9407     -5288.3228    
    236600   664.01524      924396.44     -6499.8324      1211.9296     -5287.9028    
    236700   618.21657      1366748.4     -6415.9568      1128.34       -5287.6168    
    236800   623.0891       1324454.8     -6424.8788      1137.2331     -5287.6457    
    236900   674.47974      804263.07     -6519.0025      1231.0289     -5287.9736    
    237000   726.12989     -101568.75     -6613.68        1325.2983     -5288.3816    
    237100   724.01917     -1191345.9     -6609.9021      1321.4459     -5288.4562    
    237200   663.88284     -2148071.2     -6499.6549      1211.6879     -5287.967     
    237300   614.62559     -2615901       -6409.2629      1121.7859     -5287.477     
    237400   639.9866      -2390454.7     -6455.81        1168.0736     -5287.7364    
    237500   706.58101     -1572882.3     -6577.9532      1289.6186     -5288.3346    
    237600   733.45921     -489773.61     -6627.1458      1338.6755     -5288.4704    
    237700   696.37904      512474.65     -6559.1296      1270.9985     -5288.1311    
    237800   638.06635      1188301.1     -6452.3055      1164.5689     -5287.7366    
    237900   613.2774       1408724.8     -6406.9131      1119.3252     -5287.5879    
    238000   643.33424      1137919.8     -6461.9529      1174.1836     -5287.7694    
    238100   702.25742      420334.13     -6569.9036      1281.7274     -5288.1762    
    238200   733.91576     -603851.49     -6627.9931      1339.5087     -5288.4844    
    238300   700.33992     -1676597.3     -6566.5133      1278.2277     -5288.2856    
    238400   634.05219     -2445690.1     -6444.9194      1157.2424     -5287.677     
    238500   616.70947     -2598339.5     -6413.0882      1125.5893     -5287.4989    
    238600   671.20107     -2065774       -6513.0793      1225.0448     -5288.0345    
    238700   727.52498     -1078101.3     -6616.3203      1327.8446     -5288.4757    
    238800   722.53869      5562.4581     -6607.0908      1318.7438     -5288.3469    
    238900   668.10031      878641.63     -6507.3156      1219.3855     -5287.9302    
    239000   619.94551      1351844.5     -6419.1226      1131.4956     -5287.627     
    239100   620.99226      1342766.5     -6421.0393      1133.406      -5287.6332    
    239200   670.34867      852854.96     -6511.4344      1223.4891     -5287.9454    
    239300   723.87622     -32036.699     -6609.5446      1321.185      -5288.3596    
    239400   726.36945     -1118251       -6614.2052      1325.7356     -5288.4696    
    239500   668.60865     -2095450.1     -6508.324       1220.3133     -5288.0108    
    239600   615.87023     -2605430.6     -6411.5476      1124.0575     -5287.4901    
    239700   636.08646     -2426945       -6448.6527      1160.9553     -5287.6974    
    239800   702.59699     -1640301.9     -6570.6507      1282.3472     -5288.3036    
    239900   733.84237     -563449.86     -6627.8549      1339.3748     -5288.4801    
    240000   700.21176      453295.98     -6566.1541      1277.9938     -5288.1603    
    240100   641.43074      1156288.6     -6458.4669      1170.7094     -5287.7575    
    240200   613.20443      1409338.5     -6406.7795      1119.192      -5287.5875    
    240300   639.88531      1171064.2     -6455.6366      1167.8888     -5287.7479    
    240400   698.4871       480318.99     -6562.9931      1274.846      -5288.1471    
    240500   733.70828     -529992.04     -6627.606       1339.13       -5288.476     
    240600   704.42815     -1609882.2     -6574.0073      1285.6893     -5288.3179    
    240700   637.82784     -2410743.8     -6451.8484      1164.1335     -5287.7149    
    240800   615.25872     -2610581.6     -6410.4251      1122.9415     -5287.4837    
    240900   666.4613      -2119588.4     -6504.385       1216.394      -5287.991     
    241000   725.34095     -1151465.1     -6612.3223      1323.8584     -5288.4639    
    241100   724.92995     -63456.655     -6611.478       1323.1083     -5288.3698    
    241200   672.22025      831041.41     -6514.8631      1226.905      -5287.9581    
    241300   621.91448      1334733.9     -6422.7279      1135.0892     -5287.6387    
    241400   619.13123      1358877.7     -6417.6316      1130.0094     -5287.6222    
    241500   666.24224      899623.1      -6503.9119      1215.9942     -5287.9177    
    241600   721.37408      36539.204     -6604.9544      1316.6182     -5288.3361    
    241700   728.4134      -1044689.4     -6617.9462      1329.4661     -5288.4801    
    241800   673.35317     -2040669.3     -6517.0268      1228.9727     -5288.0541    
    241900   617.48969     -2591724.3     -6414.5203      1127.0133     -5287.507     
    242000   632.42        -2460592.9     -6441.9239      1154.2634     -5287.6605    
    242100   698.42747     -1706405.9     -6563.0073      1274.7372     -5288.2702    
    242200   733.90302     -637439.53     -6627.9729      1339.4855     -5288.4874    
    242300   703.92593      392655.21     -6572.9619      1284.7727     -5288.1892    
    242400   644.94651      1122210.4     -6464.9057      1177.1262     -5287.7795    
    242500   613.39846      1407706.3     -6407.1348      1119.5462     -5287.5886    
    242600   636.59429      1202131.8     -6449.6096      1161.8821     -5287.7275    
    242700   694.60696      538815.75     -6555.882       1267.7642     -5288.1178    
    242800   733.18055     -456489.36     -6626.632       1338.1669     -5288.4652    
    242900   708.32068     -1541904.3     -6581.1417      1292.7938     -5288.3479    
    243000   641.82526     -2372990       -6459.1841      1171.4295     -5287.7547    
    243100   614.18715     -2619576.3     -6408.4581      1120.9857     -5287.4724    
    243200   661.75391     -2171195.6     -6495.7494      1207.8023     -5287.9471    
    243300   722.85502     -1224311.7     -6607.7703      1319.3212     -5288.4491    
    243400   727.06625     -133396.57     -6615.3985      1327.0073     -5288.3911    
    243500   676.35627      781635.92     -6522.4404      1234.4538     -5287.9866    
    243600   624.11552      1315428.3     -6426.7583      1139.1065     -5287.6518    
    243700   617.51349      1372777.3     -6414.6694      1127.0568     -5287.6127    
    243800   662.17906      944528.35     -6496.4689      1208.5783     -5287.8906    
    243900   718.63852      104082.91     -6599.9369      1311.6254     -5288.3114    
    244000   730.14266     -970771.42     -6621.11        1332.6222     -5288.4877    
    244100   678.08644     -1983836.2     -6525.7083      1237.6117     -5288.0966    
    244200   619.47248     -2574813.1     -6418.1599      1130.6322     -5287.5277    
    244300   629.01241     -2491325.8     -6435.6699      1148.044      -5287.6259    
    244400   694.09603     -1771077.9     -6555.0662      1266.8316     -5288.2346    
    244500   733.63737     -711645.29     -6627.4928      1339.0006     -5288.4922    
    244600   707.50246      330611.5      -6579.5181      1291.3004     -5288.2177    
    244700   648.59875      1086092.1     -6471.5947      1183.7921     -5287.8026    
    244800   613.85874      1403829.2     -6407.9776      1120.3863     -5287.5913    
    244900   633.47498      1231099.5     -6443.8973      1156.1889     -5287.7084    
    245000   690.6364       595768.87     -6548.6057      1260.5173     -5288.0884    
    245100   732.33875     -383437.3      -6625.0826      1336.6304     -5288.4522    
    245200   711.99622     -1472780       -6587.8774      1299.5022     -5288.3752    
    245300   646.01727     -2332509.1     -6466.8765      1179.0805     -5287.7959    
    245400   613.50239     -2625303.2     -6407.2011      1119.7359     -5287.4652    
    245500   657.10916     -2220492.6     -6487.228       1199.3249     -5287.9031    
    245600   720.07838     -1296528.6     -6602.6849      1314.2534     -5288.4315    
    245700   728.934       -204177.41     -6618.8272      1330.4163     -5288.4109    
    245800   680.48932      730467.57     -6530.0128      1241.9973     -5288.0155    
    245900   626.5397       1293941.3     -6431.1973      1143.531      -5287.6663    
    246000   616.14557      1384455.7     -6412.1647      1124.5601     -5287.6047    
    246100   658.17731      987533.75     -6489.1388      1201.2745     -5287.8643    
    246200   715.68547      170521.01     -6594.5213      1306.2357     -5288.2856    
    246300   731.55085     -896605.83     -6623.6849      1335.1924     -5288.4925    
    246400   682.77903     -1925060       -6534.3144      1246.1764     -5288.138     
    246500   621.80455     -2554734.9     -6422.4405      1134.8886     -5287.5519    
    246600   625.88728     -2519076.6     -6429.9341      1142.3402     -5287.5939    
    246700   689.62768     -1834202.1     -6546.8733      1258.6762     -5288.1971    
    246800   733.04338     -785967.54     -6626.4108      1337.9165     -5288.4943    
    246900   710.92267      267226.56     -6585.7884      1297.5428     -5288.2455    
    247000   652.37182      1047961.5     -6478.5053      1190.6786     -5287.8267    
    247100   614.58343      1397709.8     -6409.3045      1121.7089     -5287.5955    
    247200   630.54036      1257946       -6438.5233      1150.8328     -5287.6905    
    247300   686.59495      651125.33     -6541.2         1253.141      -5288.059     
    247400   731.19059     -310927.24     -6622.9719      1334.5349     -5288.437     
    247500   715.43514     -1402625.5     -6594.1787      1305.7788     -5288.3999    
    247600   650.37564     -2289386.7     -6474.8736      1187.0352     -5287.8384    
    247700   613.20932     -2627749.3     -6406.6631      1119.201      -5287.4622    
    247800   652.55726     -2267379.5     -6478.8765      1191.017      -5287.8595    
    247900   717.02417     -1368002.3     -6597.09        1308.679      -5288.411     
    248000   730.52079     -275716.72     -6621.7413      1333.3124     -5288.4289    
    248100   684.60006      677581.06     -6537.5447      1249.5        -5288.0447    
    248200   629.17714      1270288       -6436.0269      1148.3447     -5287.6822    
    248300   615.03292      1393904.9     -6410.1275      1122.5293     -5287.5981    
    248400   654.25473      1028604.5     -6481.954       1194.1151     -5287.8388    
    248500   712.53167      235782.71     -6588.7384      1300.4795     -5288.2589    
    248600   732.63353     -822299.44     -6625.6629      1337.1685     -5288.4944    
    248700   687.40215     -1864452.4     -6542.7924      1254.6143     -5288.1781    
    248800   624.46947     -2531534.6     -6427.3318      1139.7525     -5287.5794    
    248900   623.06638     -2543784.3     -6424.7565      1137.1916     -5287.5649    
    249000   685.04871     -1895663.8     -6538.4767      1250.3189     -5288.1578    
    249100   732.12081     -860304.44     -6624.7264      1336.2327     -5288.4938    
    249200   714.16827      202564.7      -6591.7392      1303.4665     -5288.2727    
    249300   656.24944      1007848.2     -6485.6076      1197.7558     -5287.8518    
    249400   615.56964      1389352.3     -6411.1102      1123.5089     -5287.6013    
    249500   627.80258      1282651.9     -6433.5099      1145.8359     -5287.6739    
    249600   682.50217      704834.51     -6533.7008      1245.671      -5288.0297    
    249700   729.74527     -239048.07     -6620.3169      1331.8969     -5288.4199    
    249800   718.61962     -1331556.7     -6600.0127      1311.5909     -5288.4218    
    249900   654.87125     -2243712.7     -6483.1221      1195.2404     -5287.8818    
    250000   613.31004     -2626909       -6406.848       1119.3848     -5287.4632    
    250100   648.12815     -2311760.4     -6470.7498      1182.9332     -5287.8166    
    250200   713.70748     -1438618       -6591.0131      1302.6255     -5288.3876    
    250300   731.8154      -347929.42     -6624.1203      1335.6753     -5288.445     
    250400   688.66904      623023.42     -6545.0006      1256.9265     -5288.074     
    250500   632.01703      1244485.2     -6441.2274      1153.5279     -5287.6995    
    250600   614.18001      1401118.7     -6408.5658      1120.9726     -5287.5932    
    250700   650.4285       1067707.8     -6474.9459      1187.1317     -5287.8143    
    250800   709.19454      299799.86     -6582.6201      1294.3887     -5288.2314    
    250900   733.38818     -747957.18     -6627.0394      1338.5458     -5288.4936    
    251000   691.92792     -1802126.3     -6551.091       1262.8745     -5288.2165    
    251100   627.44852     -2505263.7     -6432.7996      1145.1897     -5287.6099    
    251200   620.56945     -2565394.2     -6420.1734      1132.6343     -5287.5391    
    251300   680.38652     -1955349       -6529.9267      1241.8097     -5288.117     
    251400   730.87126     -934552.07     -6622.4425      1333.952      -5288.4904    
    251500   717.22156      136692.81     -6597.3382      1309.0393     -5288.299     
    251600   660.21468      965784.02     -6492.8707      1204.993      -5287.8777    
    251700   616.81343      1378762.4     -6413.3876      1125.779      -5287.6086    
    251800   625.27289      1305199.5     -6428.8776      1141.2188     -5287.6587    
    251900   678.37759      756848.23     -6526.1437      1238.1431     -5288.0007    
    252000   728.01334     -167886.11     -6617.1369      1328.7359     -5288.401     
    252100   721.53367     -1259688.7     -6605.3504      1316.9095     -5288.4409    
    252200   659.47439     -2195581.2     -6491.5674      1203.6418     -5287.9256    
    252300   613.80383     -2622784.2     -6407.7545      1120.286      -5287.4684    
    252400   643.85125     -2353543.1     -6462.9019      1175.1272     -5287.7747    
    252500   710.14523     -1508260.3     -6584.4854      1296.1239     -5288.3616    
    252600   732.80797     -420727.88     -6625.9459      1337.4868     -5288.4591    
    252700   692.6767       566844.09     -6552.3446      1264.2411     -5288.1034    
    252800   635.04765      1216551.6     -6446.7773      1159.0593     -5287.718     
    252900   613.59022      1406091.9     -6407.4859      1119.8962     -5287.5897    
    253000   646.71521      1104813.1     -6468.145       1180.3544     -5287.7907    
    253100   705.69209      362506.88     -6576.1994      1287.9962     -5288.2032    
    253200   733.81413     -673681.91     -6627.8133      1339.3232     -5288.49      
    253300   696.32947     -1738196.2     -6559.161       1270.908      -5288.253     
    253400   630.72091     -2475980.1     -6438.8056      1151.1623     -5287.6433    
    253500   618.41407     -2583858.3     -6416.2171      1128.7004     -5287.5167    
    253600   675.66949     -2013145.5     -6521.2754      1233.2004     -5288.075     
    253700   729.29822     -1008604.5     -6619.5652      1331.081      -5288.4842    
    253800   720.06544      69680.384     -6602.554       1314.2298     -5288.3242    
    253900   664.25008      921802.72     -6500.2626      1212.3582     -5287.9044    
    254000   618.30984      1365947.2     -6416.1276      1128.5102     -5287.6174    
    254100   622.96163      1325572.9     -6424.6454      1137.0004     -5287.6449    
    254200   674.24063      807120.65     -6518.5645      1230.5925     -5287.972     
    254300   726.00665     -97525.101     -6613.4538      1325.0734     -5288.3804    
    254400   724.16319     -1187135.7     -6610.1658      1321.7088     -5288.457     
    254500   664.15495     -2145090.3     -6500.1541      1212.1846     -5287.9695    
    254600   614.68715     -2615384.4     -6409.3759      1121.8983     -5287.4777    
    254700   639.75527     -2392639.9     -6455.3855      1167.6514     -5287.7341    
    254800   706.35618     -1576813       -6577.5412      1289.2083     -5288.3329    
    254900   733.49005     -494021.92     -6627.2027      1338.7317     -5288.471     
    255000   696.60346      509094.91     -6559.5409      1271.4081     -5288.1328    
    255100   638.25644      1186507.4     -6452.6536      1164.9158     -5287.7378    
    255200   613.26591      1408821.5     -6406.8921      1119.3043     -5287.5878    
    255300   643.13084      1139891.6     -6461.5804      1173.8123     -5287.7681    
    255400   702.04282      423840.8      -6569.5102      1281.3357     -5288.1745    
    255500   733.91258     -599574.34     -6627.9869      1339.5029     -5288.484     
    255600   700.58115     -1672777.5     -6566.9555      1278.668      -5288.2875    
    255700   634.26392     -2443748       -6445.308       1157.6289     -5287.6791    
    255800   616.61546     -2599135       -6412.9156      1125.4177     -5287.4979    
    255900   670.92675     -2068942.8     -6512.5762      1224.5441     -5288.032     
    256000   727.40714     -1082353.9     -6616.1046      1327.6295     -5288.4751    
    256100   722.68359      1599.5616     -6607.3566      1319.0083     -5288.3483    
    256200   668.33768      875940.19     -6507.7505      1219.8187     -5287.9318    
    256300   620.05285      1350915.5     -6419.3191      1131.6915     -5287.6277    
    256400   620.8782       1343757.8     -6420.8304      1133.1979     -5287.6326    
    256500   670.11046      855608.23     -6510.9981      1223.0543     -5287.9438    
    256600   723.73822     -28046.195     -6609.2914      1320.9332     -5288.3583    
    256700   726.49603     -1114010.7     -6614.4369      1325.9666     -5288.4703    
    256800   668.88267     -2092341.5     -6508.8267      1220.8134     -5288.0133    
    256900   615.95373     -2604726.2     -6411.7009      1124.2099     -5287.491     
    257000   635.86792     -2428968       -6448.2517      1160.5564     -5287.6952    
    257100   702.36082     -1644159.7     -6570.2178      1281.9161     -5288.3017    
    257200   733.8547      -567718.9      -6627.8779      1339.3973     -5288.4806    
    257300   700.42986      449830.17     -6566.5538      1278.3918     -5288.162     
    257400   641.62997      1154374.9     -6458.8317      1171.073      -5287.7587    
    257500   613.20837      1409305.3     -6406.7867      1119.1993     -5287.5875    
    257600   639.69065      1172916.7     -6455.2801      1167.5335     -5287.7466    
    257700   698.26564      483741.21     -6562.5872      1274.4418     -5288.1454    
    257800   733.68644     -525732.91     -6627.5656      1339.0902     -5288.4754    
    257900   704.65868     -1605986.3     -6574.4298      1286.1101     -5288.3197    
    258000   638.05311     -2408637.3     -6452.2618      1164.5447     -5287.7171    
    258100   615.18638     -2611190.2     -6410.2923      1122.8094     -5287.4829    
    258200   666.18804     -2122632.5     -6503.8837      1215.8953     -5287.9884    
    258300   725.20539     -1155690.8     -6612.0741      1323.611      -5288.4631    
    258400   725.06051     -67474.903     -6611.7176      1323.3465     -5288.371     
    258500   672.45905      828234.5      -6515.3006      1227.3408     -5287.9598    
    258600   622.03546      1333677.6     -6422.9495      1135.31       -5287.6394    
    258700   619.03103      1359741.5     -6417.4481      1129.8265     -5287.6216    
    258800   666.00603      902269.74     -6503.4792      1215.5631     -5287.9161    
    258900   721.22217      40472.092     -6604.6757      1316.341      -5288.3347    
    259000   728.52199     -1040425.5     -6618.1449      1329.6643     -5288.4806    
    259100   673.62734     -2037439.2     -6517.5297      1229.4731     -5288.0566    
    259200   617.59453     -2590833.8     -6414.7128      1127.2047     -5287.5081    
    259300   632.21575     -2462449.4     -6441.5491      1153.8906     -5287.6584    
    259400   698.18128     -1710184.1     -6562.556       1274.2878     -5288.2682    
    259500   733.89658     -641723.73     -6627.9614      1339.4737     -5288.4877    
    259600   704.13658      389106.67     -6573.348       1285.1572     -5288.1909    
    259700   645.15405      1120178       -6465.2858      1177.505      -5287.7808    
    259800   613.41783      1407543.3     -6407.1703      1119.5815     -5287.5887    
    259900   636.40919      1203863.5     -6449.2707      1161.5443     -5287.7264    
    260000   694.37974      542150.22     -6555.4655      1267.3494     -5288.1161    
    260100   733.14038     -452253.75     -6626.558       1338.0935     -5288.4645    
    260200   708.53924     -1537939       -6581.5422      1293.1927     -5288.3495    
    260300   642.06252     -2370723.6     -6459.6195      1171.8625     -5287.757     
    260400   614.13698     -2619996.5     -6408.366       1120.8941     -5287.4719    
    260500   661.48345     -2174108.9     -6495.2532      1207.3087     -5287.9445    
    260600   722.70233     -1228504.1     -6607.4907      1319.0425     -5288.4482    
    260700   727.18164     -137465.62     -6615.6103      1327.2179     -5288.3923    
    260800   676.59543      778725.94     -6522.8786      1234.8903     -5287.9883    
    260900   624.24965      1314245.6     -6427.0039      1139.3513     -5287.6526    
    261000   617.42757      1373512.9     -6414.5121      1126.8999     -5287.6122    
    261100   661.94591      947066.17     -6496.0418      1208.1527     -5287.8891    
    261200   718.47359      107953.87     -6599.6344      1311.3244     -5288.31      
    261300   730.23285     -966490.32     -6621.2749      1332.7869     -5288.4881    
    261400   678.35906     -1980490.7     -6526.2083      1238.1092     -5288.099     
    261500   619.59791     -2573738.4     -6418.3901      1130.8611     -5287.529     
    261600   628.82387     -2493011.6     -6435.3239      1147.6999     -5287.624     
    261700   693.84124     -1774769.7     -6554.5991      1266.3666     -5288.2325    
    261800   733.61199     -715938.96     -6627.4467      1338.9543     -5288.4924    
    261900   707.70459      326983.73     -6579.8886      1291.6693     -5288.2193    
    262000   648.8137       1083942.6     -6471.9884      1184.1844     -5287.804     
    262100   613.89345      1403536.5     -6408.0411      1120.4496     -5287.5915    
    262200   633.30021      1232709.2     -6443.5772      1155.8699     -5287.7073    
    262300   690.40454      599012.48     -6548.1808      1260.0941     -5288.0867    
    262400   732.28064     -379230.55     -6624.9757      1336.5244     -5288.4513    
    262500   712.20161     -1468752       -6588.2538      1299.8771     -5288.3767    
    262600   646.26494     -2330087.7     -6467.3309      1179.5325     -5287.7984    
    262700   613.47475     -2625534       -6407.1504      1119.6854     -5287.4649    
    262800   656.84324     -2223269.2     -6486.7402      1198.8396     -5287.9006    
    262900   719.90926     -1300681.2     -6602.3751      1313.9447     -5288.4304    
    263000   729.03348     -208292.58     -6619.0098      1330.5978     -5288.412     
    263100   680.72771      727457.04     -6530.4496      1242.4324     -5288.0172    
    263200   626.68644      1292632.9     -6431.466       1143.7988     -5287.6672    
    263300   616.07426      1385062.6     -6412.0342      1124.4299     -5287.6042    
    263400   657.94826      989960.67     -6488.7192      1200.8564     -5287.8628    
    263500   715.50848      174325.87     -6594.1968      1305.9126     -5288.2841    
    263600   731.62233     -892313.7      -6623.8155      1335.3229     -5288.4927    
    263700   683.04841     -1921605.7     -6534.8084      1246.668      -5288.1404    
    263800   621.94969     -2553478.5     -6422.7069      1135.1535     -5287.5534    
    263900   625.71575     -2520588.1     -6429.6193      1142.0271     -5287.5922    
    264000   689.36577     -1837801       -6546.393       1258.1982     -5288.1948    
    264100   732.999       -790264.84     -6626.3299      1337.8355     -5288.4944    
    264200   711.11519      263523.21     -6586.1413      1297.8942     -5288.2471    
    264300   652.59327      1045696.6     -6478.9109      1191.0827     -5287.8281    
    264400   614.63334      1397287.6     -6409.3958      1121.8        -5287.5958    
    264500   630.37664      1259432.4     -6438.2235      1150.534      -5287.6895    
    264600   686.35959      654275.08     -6540.7687      1252.7114     -5288.0573    
    264700   731.11505     -306754.56     -6622.8331      1334.397      -5288.4361    
    264800   715.6263      -1398541.5     -6594.5289      1306.1277     -5288.4012    
    264900   650.63203     -2286815.3     -6475.3441      1187.5032     -5287.8409    
    265000   613.20442     -2627790.2     -6406.6541      1119.192      -5287.4621    
    265100   652.29763     -2270013.9     -6478.4001      1190.5431     -5287.857     
    265200   716.83946     -1372108.4     -6596.7516      1308.3419     -5288.4097    
    265300   730.60367     -279873.15     -6621.8936      1333.4637     -5288.4299    
    265400   684.83658      674472.64     -6537.9781      1249.9317     -5288.0463    
    265500   629.33588      1268854.9     -6436.3176      1148.6344     -5287.6832    
    265600   614.97651      1394382.8     -6410.0242      1122.4264     -5287.5978    
    265700   654.03079      1030918.6     -6481.5438      1193.7064     -5287.8374    
    265800   712.34361      239517.47     -6588.3936      1300.1363     -5288.2573    
    265900   732.6861      -818002.4      -6625.7588      1337.2644     -5288.4944    
    266000   687.66666     -1860895.6     -6543.2774      1255.097      -5288.1803    
    266100   624.63329     -2530099.2     -6427.6325      1140.0515     -5287.5811    
    266200   622.91305     -2545118.2     -6424.4751      1136.9118     -5287.5633    
    266300   684.78123     -1899163.1     -6537.9862      1249.8307     -5288.1555    
    266400   732.05747     -864599.43     -6624.6107      1336.1171     -5288.4936    
    266500   714.35016      198789.56     -6592.0727      1303.7985     -5288.2742    
    266600   656.47641      1005469.7     -6486.0233      1198.1701     -5287.8532    
    266700   615.63456      1388801       -6411.2291      1123.6274     -5287.6017    
    266800   627.65059      1284014.1     -6433.2315      1145.5585     -5287.673     
    266900   682.26444      707887.55     -6533.2652      1245.2372     -5288.028     
    267000   729.65286     -234914.52     -6620.1472      1331.7283     -5288.4189    
    267100   718.79556     -1327423.4     -6600.335       1311.9121     -5288.423     
    267200   655.13468     -2240996.7     -6483.6055      1195.7212     -5287.8843    
    267300   613.3279      -2626759.9     -6406.8808      1119.4174     -5287.4634    
    267400   647.87651     -2314247.1     -6470.2881      1182.4739     -5287.8141    
    267500   713.50809     -1442671       -6590.6478      1302.2616     -5288.3862    
    267600   731.88108     -352122.12     -6624.241       1335.7951     -5288.4459    
    267700   688.90255      619819.9      -6545.4284      1257.3527     -5288.0757    
    267800   632.18712      1242928.5     -6441.5389      1153.8384     -5287.7005    
    267900   614.13872      1401467.2     -6408.4902      1120.8973     -5287.5929    
    268000   650.21063      1069907.2     -6474.5469      1186.734      -5287.8129    
    268100   708.99643      303460.65     -6582.2569      1294.0271     -5288.2298    
    268200   733.42174     -743661.23     -6627.1005      1338.6071     -5288.4934    
    268300   692.18597     -1798473.7     -6551.5641      1263.3455     -5288.2187    
    268400   627.62989     -2503652.6     -6433.1325      1145.5207     -5287.6118    
    268500   620.43541     -2566547.6     -6419.9274      1132.3897     -5287.5377    
    268600   680.11509     -1958742.2     -6529.4289      1241.3143     -5288.1146    
    268700   730.7891      -938838.68     -6622.2922      1333.8021     -5288.4901    
    268800   717.3918       132849.83     -6597.6504      1309.35       -5288.3004    
    268900   660.44619      963293.75     -6493.2947      1205.4155     -5287.8792    
    269000   616.8931       1378082.2     -6413.5335      1125.9244     -5287.609     
    269100   625.13325      1306436.5     -6428.6219      1140.964      -5287.6579    
    269200   678.13863      759801.85     -6525.7059      1237.7069     -5287.999     
    269300   727.90471     -163796.6      -6616.9375      1328.5377     -5288.3999    
    269400   721.69353     -1255512.7     -6605.6432      1317.2013     -5288.4419    
    269500   659.74311     -2192726.1     -6492.0604      1204.1323     -5287.9281    
    269600   613.84432     -2622445.5     -6407.8288      1120.36       -5287.4688    
    269700   643.6093      -2355876.9     -6462.4579      1174.6856     -5287.7723    
    269800   709.93221     -1512253.5     -6584.095       1295.7351     -5288.36      
    269900   732.85592     -424951.7      -6626.0342      1337.5744     -5288.4598    
    270000   692.90606      563548.4      -6552.7649      1264.6597     -5288.1051    
    270100   635.2284       1214872.3     -6447.1083      1159.3892     -5287.7191    
    270200   613.56423      1406310.8     -6407.4383      1119.8487     -5287.5896    
    270300   646.50437      1106896.1     -6467.7589      1179.9696     -5287.7893    
    270400   705.48498      366089.99     -6575.8197      1287.6182     -5288.2015    
    270500   733.82872     -669392.93     -6627.8396      1339.3499     -5288.4898    
    270600   696.57954     -1734454.4     -6559.6195      1271.3644     -5288.2551    
    270700   630.91856     -2474196.7     -6439.1683      1151.5231     -5287.6453    
    270800   618.30026     -2584828.4     -6416.0082      1128.4927     -5287.5155    
    270900   675.39577     -2016426.1     -6520.7733      1232.7008     -5288.0725    
    271000   729.19751     -1012876.6     -6619.381       1330.8972     -5288.4838    
    271100   720.22307      65773.661     -6602.8431      1314.5175     -5288.3256    
    271200   664.4851       919202.71     -6500.6931      1212.7871     -5287.9059    
    271300   618.40393      1365138.6     -6416.2999      1128.6819     -5287.6179    
    271400   622.83492      1326683.8     -6424.4134      1136.7692     -5287.6442    
    271500   674.00153      809972.26     -6518.1264      1230.1561     -5287.9703    
    271600   725.88253     -93484.396     -6613.226       1324.8469     -5288.3792    
    271700   724.30621     -1182923.5     -6610.4277      1321.9698     -5288.4579    
    271800   664.42722     -2142101.9     -6500.6536      1212.6815     -5287.9721    
    271900   614.75        -2614856.8     -6409.4913      1122.013      -5287.4783    
    272000   639.52463     -2394815.9     -6454.9623      1167.2305     -5287.7318    
    272100   706.13066     -1580739.6     -6577.1278      1288.7967     -5288.3311    
    272200   733.51983     -498271.58     -6627.2577      1338.7861     -5288.4716    
    272300   696.82755      505710.11     -6559.9516      1271.8171     -5288.1345    
    272400   638.44708      1184706.8     -6453.0027      1165.2638     -5287.7389    
    272500   613.25532      1408910.6     -6406.8727      1119.2849     -5287.5878    
    272600   642.92793      1141856.7     -6461.2088      1173.442      -5287.7668    
    272700   701.8278       427342.68     -6569.1161      1280.9433     -5288.1728    
    272800   733.90831     -595298.08     -6627.9787      1339.4951     -5288.4835    
    272900   700.82181     -1668953.2     -6567.3966      1279.1072     -5288.2894    
    273000   634.47648     -2441796.3     -6445.6981      1158.0168     -5287.6813    
    273100   616.52269     -2599919.8     -6412.7453      1125.2484     -5287.4969    
    273200   670.65246     -2072104.5     -6512.073       1224.0435     -5288.0295    
    273300   727.28825     -1086605.1     -6615.887       1327.4125     -5288.4745    
    273400   722.82769     -2366.6553     -6607.6209      1319.2713     -5288.3496    
    273500   668.57515      873232.59     -6508.1855      1220.2521     -5287.9334    
    273600   620.161        1349979.1     -6419.5172      1131.8889     -5287.6283    
    273700   620.76492      1344741.7     -6420.623       1132.9911     -5287.6319    
    273800   669.87234      858355.4      -6510.5618      1222.6197     -5287.9422    
    273900   723.59939     -24058.901     -6609.0367      1320.6798     -5288.3569    
    274000   726.62157     -1109768.9     -6614.6667      1326.1957     -5288.471     
    274100   669.15674     -2089225.7     -6509.3294      1221.3136     -5288.0158    
    274200   616.03848     -2604011       -6411.8565      1124.3646     -5287.4919    
    274300   635.65017     -2430981.5     -6447.852       1160.159      -5287.6931    
    274400   702.12404     -1648013.1     -6569.7838      1281.484      -5288.2998    
    274500   733.86596     -571988.96     -6627.8989      1339.4178     -5288.481     
    274600   700.64755      446359.48     -6566.9528      1278.7892     -5288.1637    
    274700   641.82971      1152454.3     -6459.1975      1171.4376     -5287.76      
    274800   613.21321      1409264.6     -6406.7956      1119.2081     -5287.5875    
    274900   639.49653      1174762.3     -6454.9246      1167.1792     -5287.7454    
    275000   698.0438       487158.43     -6562.1806      1274.0369     -5288.1437    
    275100   733.66354     -521475        -6627.5232      1339.0484     -5288.4748    
    275200   704.88855     -1602086.2     -6574.8512      1286.5296     -5288.3215    
    275300   638.27911     -2406521.4     -6452.6766      1164.9572     -5287.7194    
    275400   615.1153      -2611787.9     -6410.1619      1122.6797     -5287.4822    
    275500   665.91489     -2125669.1     -6503.3826      1215.3967     -5287.9859    
    275600   725.06882     -1159914.8     -6611.824       1323.3617     -5288.4623    
    275700   725.19021     -71496.212     -6611.9556      1323.5833     -5288.3723    
    275800   672.69791      825421.58     -6515.7382      1227.7768     -5287.9614    
    275900   622.15722      1332614.1     -6423.1724      1135.5323     -5287.6402    
    276000   618.93164      1360597.8     -6417.2661      1129.6451     -5287.621     
    276100   665.76997      904910.15     -6503.0468      1215.1322     -5287.9145    
    276200   721.06948      44401.516     -6604.3956      1316.0623     -5288.3333    
    276300   728.62953     -1036160.5     -6618.3417      1329.8606     -5288.4812    
    276400   673.90148     -2034202.2     -6518.0325      1229.9735     -5288.0591    
    276500   617.70057     -2589932.5     -6414.9074      1127.3982     -5287.5092    
    276600   632.01238     -2464296       -6441.1758      1153.5194     -5287.6564    
    276700   697.93456     -1713957.4     -6562.1037      1273.8375     -5288.2662    
    276800   733.88904     -646008.63     -6627.948       1339.46       -5288.4881    
    276900   704.34677      385553.45     -6573.7333      1285.5408     -5288.1925    
    277000   645.36203      1118138.8     -6465.6667      1177.8846     -5287.7821    
    277100   613.43809      1407372.8     -6407.2073      1119.6185     -5287.5888    
    277200   636.22466      1205588.3     -6448.9327      1161.2075     -5287.7252    
    277300   694.15221      545479.53     -6555.0486      1266.9342     -5288.1144    
    277400   733.09916     -448019.66     -6626.4821      1338.0183     -5288.4638    
    277500   708.75706     -1533969.9     -6581.9414      1293.5903     -5288.3512    
    277600   642.30044     -2368448.2     -6460.0561      1172.2967     -5287.7594    
    277700   614.0881      -2620405.7     -6408.2763      1120.8049     -5287.4714    
    277800   661.2132      -2177014.5     -6494.7574      1206.8154     -5287.942     
    277900   722.54866     -1232694.4     -6607.2093      1318.762      -5288.4472    
    278000   727.29614     -141537.47     -6615.8204      1327.4269     -5288.3935    
    278100   676.83457      775810.09     -6523.3167      1235.3268     -5287.9899    
    278200   624.38453      1313055.6     -6427.2509      1139.5974     -5287.6534    
    278300   617.34248      1374241       -6414.3563      1126.7446     -5287.6117    
    278400   661.71297      949597.63     -6495.6151      1207.7276     -5287.8876    
    278500   718.30795      111821.12     -6599.3306      1311.0221     -5288.3085    
    278600   730.32196     -962208.41     -6621.4379      1332.9495     -5288.4884    
    278700   678.63154     -1977138.8     -6526.708       1238.6066     -5288.1015    
    278800   619.7245      -2572653.1     -6418.6225      1131.0922     -5287.5303    
    278900   628.63627     -2494687.5     -6434.9796      1147.3575     -5287.6221    
    279000   693.586       -1778456.4     -6554.1311      1265.9007     -5288.2304    
    279100   733.58551     -720232.99     -6627.3985      1338.906      -5288.4925    
    279200   707.90619      323351.49     -6580.2582      1292.0373     -5288.2209    
    279300   649.02905      1081786.5     -6472.3828      1184.5775     -5287.8053    
    279400   613.92905      1403236.3     -6408.1063      1120.5146     -5287.5917    
    279500   633.12605      1234311.8     -6443.2583      1155.5521     -5287.7062    
    279600   690.17246      602250.74     -6547.7555      1259.6705     -5288.085     
    279700   732.22152     -375025.63     -6624.867       1336.4165     -5288.4505    
    279800   712.40621     -1464720.5     -6588.6287      1300.2505     -5288.3782    
    279900   646.51315     -2327657.5     -6467.7864      1179.9856     -5287.8008    
    280000   613.44842     -2625753.9     -6407.1021      1119.6374     -5287.4647    
    280100   656.57764     -2226037.8     -6486.2529      1198.3548     -5287.8981    
    280200   719.73923     -1304831.2     -6602.0636      1313.6344     -5288.4293    
    280300   729.13202     -212410.26     -6619.1908      1330.7777     -5288.4131    
    280400   680.96603      724440.79     -6530.8862      1242.8674     -5288.0188    
    280500   626.83388      1291317.3     -6431.736       1144.0679     -5287.6681    
    280600   616.0038       1385662.1     -6411.9052      1124.3013     -5287.6038    
    280700   657.71948      992381.11     -6488.3002      1200.4388     -5287.8613    
    280800   715.33083      178126.79     -6593.871       1305.5884     -5288.2826    
    280900   731.69272     -888021.11     -6623.9442      1335.4513     -5288.4928    
    281000   683.31756     -1918145.2     -6535.302       1247.1593     -5288.1427    
    281100   622.09594     -2552211.6     -6422.9753      1135.4204     -5287.5549    
    281200   625.54524     -2522089.5     -6429.3063      1141.7159     -5287.5904    
    281300   689.10349     -1841394.3     -6545.9121      1257.7195     -5288.1926    
    281400   732.95352     -794562.17     -6626.2469      1337.7525     -5288.4944    
    281500   711.30713      259815.6      -6586.4932      1298.2445     -5288.2487    
    281600   652.81505      1043425.1     -6479.3171      1191.4875     -5287.8296    
    281700   614.68413      1396858       -6409.4888      1121.8927     -5287.5961    
    281800   630.21359      1260911.8     -6437.9249      1150.2364     -5287.6885    
    281900   686.12407      657419.31     -6540.3372      1252.2816     -5288.0556    
    282000   731.03851     -302584.01     -6622.6925      1334.2573     -5288.4352    
    282100   715.8166      -1394454.4     -6594.8776      1306.475      -5288.4026    
    282200   650.88888     -2284235.4     -6475.8154      1187.972      -5287.8434    
    282300   613.20082     -2627820.2     -6406.6475      1119.1855     -5287.4621    
    282400   652.03841     -2272639.9     -6477.9245      1190.07       -5287.8545    
    282500   716.65387     -1376211.6     -6596.4116      1308.0031     -5288.4084    
    282600   730.68558     -284031.81     -6622.044       1333.6132     -5288.4309    
    282700   685.07295      671358.64     -6538.4112      1250.3631     -5288.048     
    282800   629.4953       1267414.7     -6436.6096      1148.9254     -5287.6842    
    282900   614.92097      1394853.2     -6409.9225      1122.325      -5287.5975    
    283000   653.80717      1033226       -6481.1342      1193.2983     -5287.836     
    283100   712.15493      243248.06     -6588.0477      1299.7919     -5288.2558    
    283200   732.73757     -813705.25     -6625.8528      1337.3584     -5288.4944    
    283300   687.93084     -1857333.1     -6543.7618      1255.5792     -5288.1826    
    283400   624.79817     -2528653.6     -6427.9352      1140.3524     -5287.5827    
    283500   622.76082     -2546441.8     -6424.1957      1136.6339     -5287.5618    
    283600   684.51348     -1902656.4     -6537.4952      1249.342      -5288.1531    
    283700   731.99303     -868894.11     -6624.493       1335.9994     -5288.4935    
    283800   714.5314       195010.39     -6592.4051      1304.1293     -5288.2758    
    283900   656.70367      1003084.6     -6486.4396      1198.5848     -5287.8547    
    284000   615.70034      1388242.1     -6411.3495      1123.7475     -5287.602     
    284100   627.4993       1285369.1     -6432.9545      1145.2824     -5287.6721    
    284200   682.02662      710934.92     -6532.8294      1244.8031     -5288.0263    
    284300   729.55949     -230783.39     -6619.9757      1331.5579     -5288.4178    
    284400   718.9706      -1323287.4     -6600.6557      1312.2315     -5288.4242    
    284500   655.39845     -2238272.4     -6484.0894      1196.2026     -5287.8868    
    284600   613.34707     -2626599.9     -6406.916       1119.4524     -5287.4636    
    284700   647.6254      -2316725.1     -6469.8273      1182.0156     -5287.8117    
    284800   713.30789     -1446720.7     -6590.281       1301.8962     -5288.3848    
    284900   731.94576     -356316.75     -6624.3599      1335.9132     -5288.4468    
    285000   689.13584      616610.97     -6545.8559      1257.7785     -5288.0774    
    285100   632.35785      1241364.6     -6441.8515      1154.15       -5287.7015    
[...]
    684000   721.25937      39511.013     -6604.744       1316.4089     -5288.3351    
    684100   666.06376      901623.35     -6503.5849      1215.6684     -5287.9165    
    684200   619.05545      1359531       -6417.4928      1129.8711     -5287.6218    
    684300   622.00581      1333936.5     -6422.8952      1135.2559     -5287.6393    
    684400   672.40067      828921.21     -6515.1936      1227.2343     -5287.9594    
    684500   725.02867     -66492.355     -6611.6592      1323.2884     -5288.3707    
    684600   725.23862     -1154658       -6612.1349      1323.6716     -5288.4633    
    684700   666.25483     -2121889       -6504.0062      1216.0172     -5287.9891    
    684800   615.20394     -2611042.4     -6410.3246      1122.8415     -5287.4831    
    684900   637.99797     -2409153.1     -6452.1607      1164.4441     -5287.7166    
    685000   704.60239     -1606939.1     -6574.3266      1286.0073     -5288.3193    
    685100   733.69188     -526773.95     -6627.5757      1339.1001     -5288.4755    
    685200   698.31981      482905.1      -6562.6865      1274.5407     -5288.1458    
    685300   639.73819      1172464.5     -6455.3672      1167.6202     -5287.7469    
    685400   613.20733      1409314.2     -6406.7848      1119.1973     -5287.5875    
    685500   641.58122      1154843.4     -6458.7425      1170.9841     -5287.7584    
    685600   700.37658      450677.84     -6566.4562      1278.2946     -5288.1616    
    685700   733.85179     -566675.23     -6627.8724      1339.392      -5288.4804    
    685800   702.41861     -1643217.1     -6570.3238      1282.0216     -5288.3021    
    685900   635.92127     -2428474.3     -6448.3496      1160.6538     -5287.6958    
    686000   615.9332      -2604899.4     -6411.6632      1124.1725     -5287.4908    
    686100   668.81568     -2093102       -6508.7038      1220.6911     -5288.0127    
    686200   726.46518     -1115047.4     -6614.3804      1325.9103     -5288.4701    
    686300   723.77203     -29021.382     -6609.3535      1320.9949     -5288.3586    
    686400   670.16869      854935.76     -6511.1047      1223.1606     -5287.9442    
    686500   620.90601      1343516.2     -6420.8813      1133.2486     -5287.6327    
    686600   620.02654      1351143.3     -6419.271       1131.6435     -5287.6275    
    686700   668.27964      876601.13     -6507.6441      1219.7128     -5287.9314    
    686800   722.64824      2568.6023     -6607.2917      1318.9438     -5288.348     
    686900   727.43604     -1081314.5     -6616.1575      1327.6823     -5288.4753    
    687000   670.99381     -2068168.8     -6512.6992      1224.6665     -5288.0327    
    687100   616.63833     -2598941.5     -6412.9576      1125.4594     -5287.4981    
    687200   634.21209     -2444223.6     -6445.2128      1157.5342     -5287.6786    
    687300   700.52224     -1673711.7     -6566.8475      1278.5604     -5288.2871    
    687400   733.91345     -600619.81     -6627.9886      1339.5045     -5288.4841    
    687500   702.09532      422984.03     -6569.6065      1281.4316     -5288.1749    
    687600   643.18052      1139410.2     -6461.6714      1173.903      -5287.7684    
    687700   613.26864      1408798.5     -6406.8971      1119.3092     -5287.5878    
    687800   638.20992      1186946.5     -6452.5684      1164.8309     -5287.7375    
    687900   696.54863      509921.56     -6559.4404      1271.308      -5288.1324    
    688000   733.48261     -492983.29     -6627.189       1338.7182     -5288.4708    
    688100   706.41121     -1575852.5     -6577.642       1289.3087     -5288.3333    
    688200   639.81175     -2392106.6     -6455.4892      1167.7545     -5287.7347    
    688300   614.67199     -2615511.7     -6409.3481      1121.8706     -5287.4775    
    688400   664.08842     -2145819.7     -6500.032       1212.0631     -5287.9689    
    688500   724.12807     -1188165.1     -6610.1015      1321.6447     -5288.4568    
    688600   726.03686     -98513.304     -6613.5092      1325.1285     -5288.3807    
    688700   674.29908      806422.66     -6518.6715      1230.6991     -5287.9724    
    688800   622.99272      1325300.3     -6424.7023      1137.0572     -5287.6451    
    688900   618.28696      1366143.7     -6416.0857      1128.4685     -5287.6172    
    689000   664.19266      922437.34     -6500.1574      1212.2534     -5287.904     
    689100   720.0268       70634.843     -6602.4831      1314.1592     -5288.3239    
    689200   729.32268     -1007560       -6619.61        1331.1257     -5288.4843    
    689300   675.73639     -2012342.5     -6521.3981      1233.3225     -5288.0756    
    689400   618.44207     -2583619.5     -6416.2685      1128.7516     -5287.517     
    689500   630.67274     -2476414.6     -6438.7172      1151.0744     -5287.6428    
    689600   696.26826     -1739110.1     -6559.0488      1270.7963     -5288.2525    
    689700   733.8104      -674730.44     -6627.8065      1339.3164     -5288.4901    
    689800   705.74264      361630.28     -6576.2921      1288.0885     -5288.2036    
    689900   646.76682      1104302.9     -6468.2395      1180.4486     -5287.791     
    690000   613.59671      1406037.3     -6407.4978      1119.908      -5287.5898    
    690100   635.00356      1216961       -6446.6965      1158.9788     -5287.7177    
    690200   692.62059      567648.93     -6552.2417      1264.1387     -5288.103     
    690300   732.79609     -419695.61     -6625.9241      1337.4652     -5288.4589    
    690400   710.19719     -1507283.6     -6584.5807      1296.2187     -5288.3619    
    690500   643.91049     -2352971.2     -6463.0106      1175.2353     -5287.7752    
    690600   613.79413     -2622865.3     -6407.7366      1120.2683     -5287.4683    
    690700   659.40874     -2196278       -6491.447       1203.522      -5287.9249    
    690800   721.49444     -1260709.2     -6605.2786      1316.8379     -5288.4406    
    690900   728.03975     -168886.2      -6617.1854      1328.7841     -5288.4013    
    691000   678.436        756125.33     -6526.2508      1238.2497     -5288.0011    
    691100   625.30713      1304896.1     -6428.9403      1141.2813     -5287.659     
    691200   616.79409      1378927.5     -6413.3522      1125.7437     -5287.6085    
    691300   660.15812      966391.8      -6492.7671      1204.8897     -5287.8773    
    691400   717.17984      137631.65     -6597.2617      1308.9631     -5288.2986    
    691500   730.89118     -933504.1      -6622.4789      1333.9884     -5288.4905    
    691600   680.45285     -1954518.6     -6530.0483      1241.9307     -5288.1176    
    691700   620.60239     -2565110.7     -6420.2339      1132.6945     -5287.5394    
    691800   627.40434     -2505656       -6432.7185      1145.1091     -5287.6095    
    691900   691.86478     -1803018.3     -6550.9752      1262.7592     -5288.216     
    692000   733.3798      -749007.36     -6627.0241      1338.5305     -5288.4936    
    692100   709.24289      298904.31     -6582.7087      1294.477      -5288.2318    
    692200   650.48181      1067169.2     -6475.0436      1187.229      -5287.8146    
    692300   614.19023      1401032.3     -6408.5845      1120.9913     -5287.5932    
    692400   631.97554      1244864.7     -6441.1514      1153.4522     -5287.6992    
    692500   688.61193      623805.7      -6544.8959      1256.8223     -5288.0736    
    692600   731.79919     -346904.81     -6624.0905      1335.6457     -5288.4448    
    692700   713.75609     -1437626.8     -6591.1022      1302.7143     -5288.388     
    692800   648.18974     -2311151.2     -6470.8628      1183.0456     -5287.8172    
    692900   613.30588     -2626943.7     -6406.8404      1119.3772     -5287.4632    
    693000   654.80691     -2244375.4     -6483.0041      1195.123      -5287.8811    
    693100   718.57647     -1332566.7     -6599.9337      1311.5122     -5288.4215    
    693200   729.76771     -240058.88     -6620.3581      1331.9379     -5288.4202    
    693300   682.56026      704087.33     -6533.8072      1245.7771     -5288.0301    
    693400   627.83984      1282317.8     -6433.5781      1145.9039     -5287.6742    
    693500   615.5539       1389486       -6411.0814      1123.4802     -5287.6012    
    693600   656.194        1008428.6     -6485.506       1197.6546     -5287.8514    
    693700   714.12371      203486.92     -6591.6575      1303.3852     -5288.2723    
    693800   732.13613     -859254.48     -6624.7544      1336.2606     -5288.4938    
    693900   685.11406     -1894807.5     -6538.5965      1250.4381     -5288.1584    
    694000   623.10402     -2543456.7     -6424.8256      1137.2603     -5287.5653    
    694100   624.42958     -2531884       -6427.2586      1139.6797     -5287.579     
    694200   687.33745     -1865320.9     -6542.6737      1254.4962     -5288.1775    
    694300   732.62052     -823349.84     -6625.6391      1337.1447     -5288.4944    
    694400   712.57755      234869.12     -6588.8225      1300.5632     -5288.2593    
    694500   654.30952      1028037.8     -6482.0544      1194.2152     -5287.8392    
    694600   615.04684      1393787       -6410.153       1122.5547     -5287.5982    
    694700   629.13844      1270637.2     -6435.9561      1148.2741     -5287.682     
    694800   684.54223      678340.06     -6537.4387      1249.3945     -5288.0442    
    694900   730.50038     -274701.02     -6621.7038      1333.2751     -5288.4287    
    695000   717.06919     -1366998.1     -6597.1724      1308.7612     -5288.4113    
    695100   652.62079     -2266734.3     -6478.9931      1191.133      -5287.8601    
    695200   613.21072     -2627737.6     -6406.6657      1119.2035     -5287.4622    
    695300   650.31303     -2290014       -6474.7588      1186.9209     -5287.8378    
    695400   715.38828     -1403623.4     -6594.0928      1305.6933     -5288.3996    
    695500   731.20891     -311947.57     -6623.0056      1334.5683     -5288.4373    
    695600   686.65245      650354.53     -6541.3054      1253.246      -5288.0594    
    695700   630.58048      1257581.5     -6438.5968      1150.906      -5287.6907    
    695800   614.57136      1397811.9     -6409.2824      1121.6869     -5287.5954    
    695900   652.31775      1048514.1     -6478.4062      1190.5799     -5287.8264    
    696000   710.87552      268131.2      -6585.7019      1297.4568     -5288.2452    
    696100   733.05407     -784917.06     -6626.4303      1337.936      -5288.4943    
    696200   689.69165     -1833321.5     -6546.9906      1258.793      -5288.1976    
    696300   625.92937     -2518705.6     -6430.0114      1142.417      -5287.5944    
    696400   621.76924     -2555040.5     -6422.3756      1134.8241     -5287.5515    
    696500   682.71314     -1925903.5     -6534.1936      1246.0561     -5288.1375    
    696600   731.53321     -897654.97     -6623.6526      1335.1602     -5288.4924    
    696700   715.72864      169590.31     -6594.6005      1306.3144     -5288.286     
    696800   658.23335      986939.51     -6489.2414      1201.3767     -5287.8647    
    696900   616.16313      1384306.2     -6412.1969      1124.5921     -5287.6048    
    697000   626.50394      1294260       -6431.1318      1143.4657     -5287.6661    
    697100   680.43103      731202.62     -6529.906       1241.8909     -5288.0151    
    697200   728.90954     -203171.84     -6618.7823      1330.3716     -5288.4106    
    697300   720.11958     -1295513.2     -6602.7603      1314.3286     -5288.4318    
    697400   657.17422     -2219812.6     -6487.3474      1199.4437     -5287.9037    
    697500   613.50935     -2625245.1     -6407.2139      1119.7486     -5287.4653    
    697600   645.95682     -2333099.7     -6466.7655      1178.9702     -5287.7954    
    697700   711.94589     -1473764.1     -6587.7852      1299.4104     -5288.3749    
    697800   732.3528      -384465.91     -6625.1084      1336.6561     -5288.4524    
    697900   690.69304      594975.16     -6548.7095      1260.6206     -5288.0888    
    698000   633.5178       1230704.9     -6443.9757      1156.2671     -5287.7086    
    698100   613.85039      1403899.6     -6407.9623      1120.371      -5287.5912    
    698200   648.54627      1086616.5     -6471.4986      1183.6963     -5287.8023    
    698300   707.45298      331497.63     -6579.4274      1291.2101     -5288.2173    
    698400   733.64341     -710595.76     -6627.5038      1339.0116     -5288.4921    
    698500   694.15825     -1770174.6     -6555.1803      1266.9452     -5288.2351    
    698600   629.05864     -2490912.2     -6435.7548      1148.1284     -5287.6264    
    698700   619.44199     -2575074.2     -6418.1039      1130.5766     -5287.5274    
    698800   678.01978     -1984653       -6525.586       1237.49       -5288.096     
    698900   730.12045     -971817.82     -6621.0694      1332.5817     -5288.4876    
    699000   718.67872      103136.09     -6600.0106      1311.6988     -5288.3118    
    699100   662.23608      943907.02     -6496.5734      1208.6823     -5287.891     
    699200   617.53463      1372596.4     -6414.7081      1127.0953     -5287.6128    
    699300   624.08284      1315716.3     -6426.6984      1139.0468     -5287.6516    
    699400   676.29781      782346.37     -6522.3333      1234.3471     -5287.9862    
    699500   727.0379      -132402.31     -6615.3464      1326.9556     -5288.3909    
    699600   722.8922      -1223286.5     -6607.8384      1319.389      -5288.4494    
    699700   661.82006     -2170482.3     -6495.8707      1207.923      -5287.9477    
    699800   614.19962     -2619472       -6408.481       1121.0084     -5287.4726    
    699900   641.76735     -2373542.6     -6459.0778      1171.3238     -5287.7541    
    700000   708.26715     -1542873.1     -6581.0435      1292.6961     -5288.3475    
    700100   733.19021     -457524.99     -6626.6498      1338.1845     -5288.4653    
    700200   694.66246      537999.85     -6555.9837      1267.8655     -5288.1182    
    700300   636.63963      1201707.4     -6449.6927      1161.9649     -5287.7278    
    700400   613.39386      1407745       -6407.1264      1119.5378     -5287.5886    
    700500   644.89585      1122706.2     -6464.8129      1177.0338     -5287.7792    
    700600   703.87436      393521.94     -6572.8674      1284.6786     -5288.1888    
    700700   733.90443     -636392.37     -6627.9753      1339.488      -5288.4873    
    700800   698.48757     -1705481.6     -6563.1175      1274.8468     -5288.2707    
    700900   632.47006     -2460137.6     -6442.0158      1154.3548     -5287.661     
    701000   617.46425     -2591940.4     -6414.4736      1126.9669     -5287.5068    
    701100   673.28614     -2041457.9     -6516.9039      1228.8504     -5288.0535    
    701200   728.3867      -1045731.5     -6617.8973      1329.4173     -5288.48      
    701300   721.41109      35577.281     -6605.0223      1316.6858     -5288.3365    
    701400   666.3          898975.18     -6504.0177      1216.0996     -5287.9181    
    701500   619.15584      1358665.5     -6417.6767      1130.0543     -5287.6224    
    701600   621.88502      1334990.9     -6422.674       1135.0355     -5287.6385    
    701700   672.16188      831726.64     -6514.7562      1226.7984     -5287.9577    
    701800   724.89791     -62474.859     -6611.4192      1323.0498     -5288.3695    
    701900   725.37394     -1150431.8     -6612.3827      1323.9186     -5288.4641    
    702000   666.52812     -2118843.2     -6504.5075      1216.516      -5287.9916    
    702100   615.2766      -2610431.2     -6410.458       1122.9741     -5287.4839    
    702200   637.77288     -2411257.3     -6451.7476      1164.0332     -5287.7143    
    702300   704.3717      -1610833.9     -6573.9038      1285.5863     -5288.3175    
    702400   733.71345     -531033.37     -6627.6156      1339.1395     -5288.4761    
    702500   698.54119      479481.68     -6563.0922      1274.9447     -5288.1475    
    702600   639.93298      1170610.3     -6455.7239      1167.9758     -5287.7482    
    702700   613.2036       1409345.5     -6406.778       1119.1905     -5287.5875    
    702800   641.38211      1156755.4     -6458.3778      1170.6206     -5287.7572    
    702900   700.15839      454142.46     -6566.0563      1277.8964     -5288.1599    
    703000   733.83919     -562406.45     -6627.8489      1339.369      -5288.48      
    703100   702.65463     -1639358.2     -6570.7564      1282.4524     -5288.304     
    703200   636.14        -2426449       -6448.751       1161.053      -5287.698     
    703300   615.85001     -2605601.1     -6411.5105      1124.0206     -5287.4899    
    703400   668.54168     -2096208.9     -6508.2012      1220.191      -5288.0102    
    703500   726.33836     -1119287.3     -6614.1483      1325.6788     -5288.4695    
    703600   723.90983     -33012.668     -6609.6063      1321.2464     -5288.3599    
    703700   670.40691      852180.99     -6511.5411      1223.5954     -5287.9458    
    703800   621.02027      1342523.1     -6421.0906      1133.4572     -5287.6334    
    703900   619.91939      1352070.5     -6419.0748      1131.4479     -5287.6269    
    704000   668.04231      879301.07     -6507.2094      1219.2796     -5287.9298    
    704100   722.50314      6530.6848     -6607.0255      1318.679      -5288.3466    
    704200   727.55363     -1077061.6     -6616.3727      1327.8969     -5288.4759    
    704300   671.26812     -2064998.3     -6513.2023      1225.1672     -5288.0352    
    704400   616.73264     -2598143.3     -6413.1307      1125.6316     -5287.4991    
    704500   634.00055     -2446163.4     -6444.8246      1157.1482     -5287.6765    
    704600   700.28086     -1677530.3     -6566.405       1278.1199     -5288.2851    
    704700   733.91637     -604897.17     -6627.9943      1339.5099     -5288.4845    
    704800   702.30981      419476.19     -6569.9996      1281.823      -5288.1766    
    704900   643.38403      1137436.7     -6462.0441      1174.2745     -5287.7697    
    705000   613.28035      1408700.1     -6406.9185      1119.3306     -5287.5879    
    705001   614.23818      1400627.5     -6408.6723      1121.0788     -5287.5935    
Loop time of 691.439 on 1 procs for 500000 steps with 14121 atoms

Performance: 62.478 ns/day, 0.384 hours/ns, 723.130 timesteps/s, 10.211 Matom-step/s
79.7% CPU use with 1 MPI tasks x 1 OpenMP threads

MPI task timing breakdown:
Section |  min time  |  avg time  |  max time  |%varavg| %total
---------------------------------------------------------------
Pair    | 457.36     | 457.36     | 457.36     |   0.0 | 66.15
Neigh   | 90.528     | 90.528     | 90.528     |   0.0 | 13.09
Comm    | 6.7336     | 6.7336     | 6.7336     |   0.0 |  0.97
Output  | 86.861     | 86.861     | 86.861     |   0.0 | 12.56
Modify  | 37.222     | 37.222     | 37.222     |   0.0 |  5.38
Other   |            | 12.73      |            |       |  1.84

Nlocal:          14121 ave       14121 max       14121 min
Histogram: 1 0 0 0 0 0 0 0 0 0
Nghost:              0 ave           0 max           0 min
Histogram: 1 0 0 0 0 0 0 0 0 0
Neighs:              0 ave           0 max           0 min
Histogram: 1 0 0 0 0 0 0 0 0 0
FullNghs:       167152 ave      167152 max      167152 min
Histogram: 1 0 0 0 0 0 0 0 0 0

Total # of neighbors = 167152
Ave neighs/atom = 11.837122
Neighbor list builds = 9433
Dangerous builds = 0
Total wall time: 0:14:33
