(written by ASE)

10000 atoms
1 atom types

0.0                      40  xlo xhi
0.0                      40  ylo yhi
0.0                      40  zlo zhi

Atoms # full

     1   0   1 5.042                       0                       0                       0
     2   0   1 -2.87    0.050000000000000003                       0                       0
     3   0   1 4.616                       2                       2                       2
     4   0   1 -1.544      2.0499999999999998                       2                       2
     5   0   1  0.97                       2                       2                       0
     6   0   1 -2.718      2.0499999999999998                       2                       0
     7   0   1  0.97                       2                       0                       2
     8   0   1 -2.718      2.0499999999999998                       0                       2
     9   0   1  0.97                       0                       2                       2
    10   0   1 -2.718    0.050000000000000003                       2                       2
    11   0   1 5.042                       0                       0                       4
    12   0   1 -2.87    0.050000000000000003                       0                       4
    13   0   1 4.616                       2                       2      6.0000000000000009
    14   0   1 -1.544      2.0499999999999998                       2      6.0000000000000009
    15   0   1  0.97                       2                       2                       4
    16   0   1 -2.718      2.0499999999999998                       2                       4
    17   0   1  0.97                       2                       0      6.0000000000000009
    18   0   1 -2.718      2.0499999999999998                       0      6.0000000000000009
    19   0   1  0.97                       0                       2      6.0000000000000009
    20   0   1 -2.718    0.050000000000000003                       2      6.0000000000000009
    21   0   1 5.042                       0                       0                       8
    22   0   1 -2.87    0.050000000000000003                       0                       8
    23   0   1 4.616                       2                       2                      10
    24   0   1 -1.544      2.0499999999999998                       2                      10
    25   0   1  0.97                       2                       2                       8
    26   0   1 -2.718      2.0499999999999998                       2                       8
    27   0   1  0.97                       2                       0                      10
    28   0   1 -2.718      2.0499999999999998                       0                      10
    29   0   1  0.97                       0                       2                      10
    30   0   1 -2.718    0.050000000000000003                       2                      10
    31   0   1 5.042                       0                       0      12.000000000000002
    32   0   1 -2.87    0.050000000000000003                       0      12.000000000000002
    33   0   1 4.616                       2                       2      14.000000000000004
    34   0   1 -1.544      2.0499999999999998                       2      14.000000000000004
    35   0   1  0.97                       2                       2      12.000000000000002
    36   0   1 -2.718      2.0499999999999998                       2      12.000000000000002
    37   0   1  0.97                       2                       0      14.000000000000004
    38   0   1 -2.718      2.0499999999999998                       0      14.000000000000004
    39   0   1  0.97                       0                       2      14.000000000000004
    40   0   1 -2.718    0.050000000000000003                       2      14.000000000000004
    41   0   1 5.042                       0                       0                      16
    42   0   1 -2.87    0.050000000000000003                       0                      16
    43   0   1 4.616                       2                       2                      18
    44   0   1 -1.544      2.0499999999999998                       2                      18
    45   0   1  0.97                       2                       2                      16
    46   0   1 -2.718      2.0499999999999998                       2                      16
    47   0   1  0.97                       2                       0                      18
    48   0   1 -2.718      2.0499999999999998                       0                      18
    49   0   1  0.97                       0                       2                      18
    50   0   1 -2.718    0.050000000000000003                       2                      18
    51   0   1 5.042                       0                       0      19.999999999999996
    52   0   1 -2.87    0.050000000000000003                       0      19.999999999999996
    53   0   1 4.616                       2                       2                      22
    54   0   1 -1.544      2.0499999999999998                       2                      22
    55   0   1  0.97                       2                       2      19.999999999999996
    56   0   1 -2.718      2.0499999999999998                       2      19.999999999999996
    57   0   1  0.97                       2                       0                      22
    58   0   1 -2.718      2.0499999999999998                       0                      22
    59   0   1  0.97                       0                       2                      22
    60   0   1 -2.718    0.050000000000000003                       2                      22
    61   0   1 5.042                       0                       0      24.000000000000004
    62   0   1 -2.87    0.050000000000000003                       0      24.000000000000004
    63   0   1 4.616                       2                       2      26.000000000000007
    64   0   1 -1.544      2.0499999999999998                       2      26.000000000000007
    65   0   1  0.97                       2                       2      24.000000000000004
    66   0   1 -2.718      2.0499999999999998                       2      24.000000000000004
    67   0   1  0.97                       2                       0      26.000000000000007
    68   0   1 -2.718      2.0499999999999998                       0      26.000000000000007
    69   0   1  0.97                       0                       2      26.000000000000007
    70   0   1 -2.718    0.050000000000000003                       2      26.000000000000007
    71   0   1 5.042                       0                       0      28.000000000000007
    72   0   1 -2.87    0.050000000000000003                       0      28.000000000000007
    73   0   1 4.616                       2                       2      30.000000000000004
    74   0   1 -1.544      2.0499999999999998                       2      30.000000000000004
    75   0   1  0.97                       2                       2      28.000000000000007
    76   0   1 -2.718      2.0499999999999998                       2      28.000000000000007
    77   0   1  0.97                       2                       0      30.000000000000004
    78   0   1 -2.718      2.0499999999999998                       0      30.000000000000004
    79   0   1  0.97                       0                       2      30.000000000000004
    80   0   1 -2.718    0.050000000000000003                       2      30.000000000000004
    81   0   1 5.042                       0                       0                      32
    82   0   1 -2.87    0.050000000000000003                       0                      32
    83   0   1 4.616                       2                       2                      34
    84   0   1 -1.544      2.0499999999999998                       2                      34
    85   0   1  0.97                       2                       2                      32
    86   0   1 -2.718      2.0499999999999998                       2                      32
    87   0   1  0.97                       2                       0                      34
    88   0   1 -2.718      2.0499999999999998                       0                      34
    89   0   1  0.97                       0                       2                      34
    90   0   1 -2.718    0.050000000000000003                       2                      34
    91   0   1 5.042                       0                       0                      36
    92   0   1 -2.87    0.050000000000000003                       0                      36
    93   0   1 4.616                       2                       2                      38
    94   0   1 -1.544      2.0499999999999998                       2                      38
    95   0   1  0.97                       2                       2                      36
    96   0   1 -2.718      2.0499999999999998                       2                      36
    97   0   1  0.97                       2                       0                      38
    98   0   1 -2.718      2.0499999999999998                       0                      38
    99   0   1  0.97                       0                       2                      38
   100   0   1 -2.718    0.050000000000000003                       2                      38
   101   0   1 5.042                       0                       4                       0
   102   0   1 -2.87    0.050000000000000003                       4                       0
   103   0   1 4.616                       2      6.0000000000000009                       2
   104   0   1 -1.544      2.0499999999999998      6.0000000000000009                       2
   105   0   1  0.97                       2      6.0000000000000009                       0
   106   0   1 -2.718      2.0499999999999998      6.0000000000000009                       0
   107   0   1  0.97                       2                       4                       2
   108   0   1 -2.718      2.0499999999999998                       4                       2
   109   0   1  0.97                       0      6.0000000000000009                       2
   110   0   1 -2.718    0.050000000000000003      6.0000000000000009                       2
   111   0   1 5.042                       0                       4                       4
   112   0   1 -2.87    0.050000000000000003                       4                       4
   113   0   1 4.616                       2      6.0000000000000009      6.0000000000000009
   114   0   1 -1.544      2.0499999999999998      6.0000000000000009      6.0000000000000009
   115   0   1  0.97                       2      6.0000000000000009                       4
   116   0   1 -2.718      2.0499999999999998      6.0000000000000009                       4
   117   0   1  0.97                       2                       4      6.0000000000000009
   118   0   1 -2.718      2.0499999999999998                       4      6.0000000000000009
   119   0   1  0.97                       0      6.0000000000000009      6.0000000000000009
   120   0   1 -2.718    0.050000000000000003      6.0000000000000009      6.0000000000000009
   121   0   1 5.042                       0                       4                       8
   122   0   1 -2.87    0.050000000000000003                       4                       8
   123   0   1 4.616                       2      6.0000000000000009                      10
   124   0   1 -1.544      2.0499999999999998      6.0000000000000009                      10
   125   0   1  0.97                       2      6.0000000000000009                       8
   126   0   1 -2.718      2.0499999999999998      6.0000000000000009                       8
   127   0   1  0.97                       2                       4                      10
   128   0   1 -2.718      2.0499999999999998                       4                      10
   129   0   1  0.97                       0      6.0000000000000009                      10
   130   0   1 -2.718    0.050000000000000003      6.0000000000000009                      10
   131   0   1 5.042                       0                       4      12.000000000000002
   132   0   1 -2.87    0.050000000000000003                       4      12.000000000000002
   133   0   1 4.616                       2      6.0000000000000009      14.000000000000004
   134   0   1 -1.544      2.0499999999999998      6.0000000000000009      14.000000000000004
   135   0   1  0.97                       2      6.0000000000000009      12.000000000000002
   136   0   1 -2.718      2.0499999999999998      6.0000000000000009      12.000000000000002
   137   0   1  0.97                       2                       4      14.000000000000004
   138   0   1 -2.718      2.0499999999999998                       4      14.000000000000004
   139   0   1  0.97                       0      6.0000000000000009      14.000000000000004
   140   0   1 -2.718    0.050000000000000003      6.0000000000000009      14.000000000000004
   141   0   1 5.042                       0                       4                      16
   142   0   1 -2.87    0.050000000000000003                       4                      16
   143   0   1 4.616                       2      6.0000000000000009                      18
   144   0   1 -1.544      2.0499999999999998      6.0000000000000009                      18
   145   0   1  0.97                       2      6.0000000000000009                      16
   146   0   1 -2.718      2.0499999999999998      6.0000000000000009                      16
   147   0   1  0.97                       2                       4                      18
   148   0   1 -2.718      2.0499999999999998                       4                      18
   149   0   1  0.97                       0      6.0000000000000009                      18
   150   0   1 -2.718    0.050000000000000003      6.0000000000000009                      18
   151   0   1 5.042                       0                       4      19.999999999999996
   152   0   1 -2.87    0.050000000000000003                       4      19.999999999999996
   153   0   1 4.616                       2      6.0000000000000009                      22
   154   0   1 -1.544      2.0499999999999998      6.0000000000000009                      22
   155   0   1  0.97                       2      6.0000000000000009      19.999999999999996
   156   0   1 -2.718      2.0499999999999998      6.0000000000000009      19.999999999999996
   157   0   1  0.97                       2                       4                      22
   158   0   1 -2.718      2.0499999999999998                       4                      22
   159   0   1  0.97                       0      6.0000000000000009                      22
   160   0   1 -2.718    0.050000000000000003      6.0000000000000009                      22
   161   0   1 5.042                       0                       4      24.000000000000004
   162   0   1 -2.87    0.050000000000000003                       4      24.000000000000004
   163   0   1 4.616                       2      6.0000000000000009      26.000000000000007
   164   0   1 -1.544      2.0499999999999998      6.0000000000000009      26.000000000000007
   165   0   1  0.97                       2      6.0000000000000009      24.000000000000004
   166   0   1 -2.718      2.0499999999999998      6.0000000000000009      24.000000000000004
   167   0   1  0.97                       2                       4      26.000000000000007
   168   0   1 -2.718      2.0499999999999998                       4      26.000000000000007
   169   0   1  0.97                       0      6.0000000000000009      26.000000000000007
   170   0   1 -2.718    0.050000000000000003      6.0000000000000009      26.000000000000007
   171   0   1 5.042                       0                       4      28.000000000000007
   172   0   1 -2.87    0.050000000000000003                       4      28.000000000000007
   173   0   1 4.616                       2      6.0000000000000009      30.000000000000004
   174   0   1 -1.544      2.0499999999999998      6.0000000000000009      30.000000000000004
   175   0   1  0.97                       2      6.0000000000000009      28.000000000000007
   176   0   1 -2.718      2.0499999999999998      6.0000000000000009      28.000000000000007
   177   0   1  0.97                       2                       4      30.000000000000004
   178   0   1 -2.718      2.0499999999999998                       4      30.000000000000004
   179   0   1  0.97                       0      6.0000000000000009      30.000000000000004
   180   0   1 -2.718    0.050000000000000003      6.0000000000000009      30.000000000000004
   181   0   1 5.042                       0                       4                      32
   182   0   1 -2.87    0.050000000000000003                       4                      32
   183   0   1 4.616                       2      6.0000000000000009                      34
   184   0   1 -1.544      2.0499999999999998      6.0000000000000009                      34
   185   0   1  0.97                       2      6.0000000000000009                      32
   186   0   1 -2.718      2.0499999999999998      6.0000000000000009                      32
   187   0   1  0.97                       2                       4                      34
   188   0   1 -2.718      2.0499999999999998                       4                      34
   189   0   1  0.97                       0      6.0000000000000009                      34
   190   0   1 -2.718    0.050000000000000003      6.0000000000000009                      34
   191   0   1 5.042                       0                       4                      36
   192   0   1 -2.87    0.050000000000000003                       4                      36
   193   0   1 4.616                       2      6.0000000000000009                      38
   194   0   1 -1.544      2.0499999999999998      6.0000000000000009                      38
   195   0   1  0.97                       2      6.0000000000000009                      36
   196   0   1 -2.718      2.0499999999999998      6.0000000000000009                      36
   197   0   1  0.97                       2                       4                      38
   198   0   1 -2.718      2.0499999999999998                       4                      38
   199   0   1  0.97                       0      6.0000000000000009                      38
   200   0   1 -2.718    0.050000000000000003      6.0000000000000009                      38
   201   0   1 5.042                       0                       8                       0
   202   0   1 -2.87    0.050000000000000003                       8                       0
   203   0   1 4.616                       2                      10                       2
   204   0   1 -1.544      2.0499999999999998                      10                       2
   205   0   1  0.97                       2                      10                       0
   206   0   1 -2.718      2.0499999999999998                      10                       0
   207   0   1  0.97                       2                       8                       2
   208   0   1 -2.718      2.0499999999999998                       8                       2
   209   0   1  0.97                       0                      10                       2
   210   0   1 -2.718    0.050000000000000003                      10                       2
   211   0   1 5.042                       0                       8                       4
   212   0   1 -2.87    0.050000000000000003                       8                       4
   213   0   1 4.616                       2                      10      6.0000000000000009
   214   0   1 -1.544      2.0499999999999998                      10      6.0000000000000009
   215   0   1  0.97                       2                      10                       4
   216   0   1 -2.718      2.0499999999999998                      10                       4
   217   0   1  0.97                       2                       8      6.0000000000000009
   218   0   1 -2.718      2.0499999999999998                       8      6.0000000000000009
   219   0   1  0.97                       0                      10      6.0000000000000009
   220   0   1 -2.718    0.050000000000000003                      10      6.0000000000000009
   221   0   1 5.042                       0                       8                       8
   222   0   1 -2.87    0.050000000000000003                       8                       8
   223   0   1 4.616                       2                      10                      10
   224   0   1 -1.544      2.0499999999999998                      10                      10
   225   0   1  0.97                       2                      10                       8
   226   0   1 -2.718      2.0499999999999998                      10                       8
   227   0   1  0.97                       2                       8                      10
   228   0   1 -2.718      2.0499999999999998                       8                      10
   229   0   1  0.97                       0                      10                      10
   230   0   1 -2.718    0.050000000000000003                      10                      10
   231   0   1 5.042                       0                       8      12.000000000000002
   232   0   1 -2.87    0.050000000000000003                       8      12.000000000000002
   233   0   1 4.616                       2                      10      14.000000000000004
   234   0   1 -1.544      2.0499999999999998                      10      14.000000000000004
   235   0   1  0.97                       2                      10      12.000000000000002
   236   0   1 -2.718      2.0499999999999998                      10      12.000000000000002
   237   0   1  0.97                       2                       8      14.000000000000004
   238   0   1 -2.718      2.0499999999999998                       8      14.000000000000004
   239   0   1  0.97                       0                      10      14.000000000000004
   240   0   1 -2.718    0.050000000000000003                      10      14.000000000000004
   241   0   1 5.042                       0                       8                      16
   242   0   1 -2.87    0.050000000000000003                       8                      16
   243   0   1 4.616                       2                      10                      18
   244   0   1 -1.544      2.0499999999999998                      10                      18
   245   0   1  0.97                       2                      10                      16
   246   0   1 -2.718      2.0499999999999998                      10                      16
   247   0   1  0.97                       2                       8                      18
   248   0   1 -2.718      2.0499999999999998                       8                      18
   249   0   1  0.97                       0                      10                      18
   250   0   1 -2.718    0.050000000000000003                      10                      18
   251   0   1 5.042                       0                       8      19.999999999999996
   252   0   1 -2.87    0.050000000000000003                       8      19.999999999999996
   253   0   1 4.616                       2                      10                      22
   254   0   1 -1.544      2.0499999999999998                      10                      22
   255   0   1  0.97                       2                      10      19.999999999999996
   256   0   1 -2.718      2.0499999999999998                      10      19.999999999999996
   257   0   1  0.97                       2                       8                      22
   258   0   1 -2.718      2.0499999999999998                       8                      22
   259   0   1  0.97                       0                      10                      22
   260   0   1 -2.718    0.050000000000000003                      10                      22
   261   0   1 5.042                       0                       8      24.000000000000004
   262   0   1 -2.87    0.050000000000000003                       8      24.000000000000004
   263   0   1 4.616                       2                      10      26.000000000000007
   264   0   1 -1.544      2.0499999999999998                      10      26.000000000000007
   265   0   1  0.97                       2                      10      24.000000000000004
   266   0   1 -2.718      2.0499999999999998                      10      24.000000000000004
   267   0   1  0.97                       2                       8      26.000000000000007
   268   0   1 -2.718      2.0499999999999998                       8      26.000000000000007
   269   0   1  0.97                       0                      10      26.000000000000007
   270   0   1 -2.718    0.050000000000000003                      10      26.000000000000007
   271   0   1 5.042                       0                       8      28.000000000000007
   272   0   1 -2.87    0.050000000000000003                       8      28.000000000000007
   273   0   1 4.616                       2                      10      30.000000000000004
   274   0   1 -1.544      2.0499999999999998                      10      30.000000000000004
   275   0   1  0.97                       2                      10      28.000000000000007
   276   0   1 -2.718      2.0499999999999998                      10      28.000000000000007
   277   0   1  0.97                       2                       8      30.000000000000004
   278   0   1 -2.718      2.0499999999999998                       8      30.000000000000004
   279   0   1  0.97                       0                      10      30.000000000000004
   280   0   1 -2.718    0.050000000000000003                      10      30.000000000000004
   281   0   1 5.042                       0                       8                      32
   282   0   1 -2.87    0.050000000000000003                       8                      32
   283   0   1 4.616                       2                      10                      34
   284   0   1 -1.544      2.0499999999999998                      10                      34
   285   0   1  0.97                       2                      10                      32
   286   0   1 -2.718      2.0499999999999998                      10                      32
   287   0   1  0.97                       2                       8                      34
   288   0   1 -2.718      2.0499999999999998                       8                      34
   289   0   1  0.97                       0                      10                      34
   290   0   1 -2.718    0.050000000000000003                      10                      34
   291   0   1 5.042                       0                       8                      36
   292   0   1 -2.87    0.050000000000000003                       8                      36
   293   0   1 4.616                       2                      10                      38
   294   0   1 -1.544      2.0499999999999998                      10                      38
   295   0   1  0.97                       2                      10                      36
   296   0   1 -2.718      2.0499999999999998                      10                      36
   297   0   1  0.97                       2                       8                      38
   298   0   1 -2.718      2.0499999999999998                       8                      38
   299   0   1  0.97                       0                      10                      38
   300   0   1 -2.718    0.050000000000000003                      10                      38
   301   0   1 5.042                       0      12.000000000000002                       0
   302   0   1 -2.87    0.050000000000000003      12.000000000000002                       0
   303   0   1 4.616                       2      14.000000000000004                       2
   304   0   1 -1.544      2.0499999999999998      14.000000000000004                       2
   305   0   1  0.97                       2      14.000000000000004                       0
   306   0   1 -2.718      2.0499999999999998      14.000000000000004                       0
   307   0   1  0.97                       2      12.000000000000002                       2
   308   0   1 -2.718      2.0499999999999998      12.000000000000002                       2
   309   0   1  0.97                       0      14.000000000000004                       2
   310   0   1 -2.718    0.050000000000000003      14.000000000000004                       2
   311   0   1 5.042                       0      12.000000000000002                       4
   312   0   1 -2.87    0.050000000000000003      12.000000000000002                       4
   313   0   1 4.616                       2      14.000000000000004      6.0000000000000009
   314   0   1 -1.544      2.0499999999999998      14.000000000000004      6.0000000000000009
   315   0   1  0.97                       2      14.000000000000004                       4
   316   0   1 -2.718      2.0499999999999998      14.000000000000004                       4
   317   0   1  0.97                       2      12.000000000000002      6.0000000000000009
   318   0   1 -2.718      2.0499999999999998      12.000000000000002      6.0000000000000009
   319   0   1  0.97                       0      14.000000000000004      6.0000000000000009