LAMMPS (2 Apr 2025)
OMP_NUM_THREADS environment is not set. Defaulting to 1 thread. (src/comm.cpp:99)
  using 1 OpenMP thread(s) per MPI task
Loaded 1 plugins from C:\Users\Abhiraj\AppData\Local\LAMMPS 64-bit 2Apr2025 with Python\plugins
units     metal
atom_style charge
boundary   s s s
read_data  GaN_nanobelt.data
Reading data file ...
  orthogonal box = (-0.0210474 -0.003314106 -0.006613986) to (210.49505 33.144374 66.146474)
  1 by 1 by 1 MPI processor grid
  reading atoms ...
  14121 atoms
  reading velocities ...
  14121 velocities
  read_data CPU = 0.104 seconds

pair_style sw
pair_coeff * * GaN.sw Ga N

neighbor 2.0 bin
neigh_modify delay 0 every 1 check yes

minimize 1.0e-6 1.0e-8 10000 100000
Neighbor list info ...
  update: every = 1 steps, delay = 0 steps, check = yes
  max neighbors/atom: 2000, page size: 100000
  master list distance cutoff = 3.8
  ghost atom cutoff = 3.8
  binsize = 1.9, bins = 111 18 35
  1 neighbor lists, perpetual/occasional/extra = 1 0 0
  (1) pair sw, perpetual
      attributes: full, newton on
      pair build: full/bin/atomonly
      stencil: full/bin/3d
      bin: standard
Per MPI rank memory allocation (min/avg/max) = 5.179 | 5.179 | 5.179 Mbytes
   Step          Temp          E_pair         E_mol          TotEng         Press          Volume    
         0   0              0              0              0              0              461624.37    
         1   0              0              0              0              0              461624.37    
Loop time of 0.000981 on 1 procs for 1 steps with 14121 atoms

0.0% CPU use with 1 MPI tasks x 1 OpenMP threads

Minimization stats:
  Stopping criterion = search direction is not downhill
  Energy initial, next-to-last, final = 
                     0                  0                  0
  Force two-norm initial, final = 0 0
  Force max component initial, final = 0 0
  Final line search alpha, max atom move = 0 0
  Iterations, force evaluations = 1 0

MPI task timing breakdown:
Section |  min time  |  avg time  |  max time  |%varavg| %total
---------------------------------------------------------------
Pair    | 0.000446   | 0.000446   | 0.000446   |   0.0 | 45.46
Neigh   | 0          | 0          | 0          |   0.0 |  0.00
Comm    | 2e-06      | 2e-06      | 2e-06      |   0.0 |  0.20
Output  | 0          | 0          | 0          |   0.0 |  0.00
Modify  | 0          | 0          | 0          |   0.0 |  0.00
Other   |            | 0.000533   |            |       | 54.33

Nlocal:          14121 ave       14121 max       14121 min
Histogram: 1 0 0 0 0 0 0 0 0 0
Nghost:              0 ave           0 max           0 min
Histogram: 1 0 0 0 0 0 0 0 0 0
Neighs:              0 ave           0 max           0 min
Histogram: 1 0 0 0 0 0 0 0 0 0
FullNghs:       117304 ave      117304 max      117304 min
Histogram: 1 0 0 0 0 0 0 0 0 0

Total # of neighbors = 117304
Ave neighs/atom = 8.3070604
Neighbor list builds = 0
Dangerous builds = 0

timestep 0.001

fix nvt all nvt temp 300.0 300.0 0.1
run 100000
Per MPI rank memory allocation (min/avg/max) = 4.054 | 4.054 | 4.054 Mbytes
   Step          Temp          E_pair         E_mol          TotEng         Press          Volume    
         1   0              0              0              0              0              461624.37    
    100001   0              0              0              0              0              461624.37    
Loop time of 59.8654 on 1 procs for 100000 steps with 14121 atoms

Performance: 144.324 ns/day, 0.166 hours/ns, 1670.413 timesteps/s, 23.588 Matom-step/s
96.0% CPU use with 1 MPI tasks x 1 OpenMP threads

MPI task timing breakdown:
Section |  min time  |  avg time  |  max time  |%varavg| %total
---------------------------------------------------------------
Pair    | 39.86      | 39.86      | 39.86      |   0.0 | 66.58
Neigh   | 0          | 0          | 0          |   0.0 |  0.00
Comm    | 0.019488   | 0.019488   | 0.019488   |   0.0 |  0.03
Output  | 0.001165   | 0.001165   | 0.001165   |   0.0 |  0.00
Modify  | 17.545     | 17.545     | 17.545     |   0.0 | 29.31
Other   |            | 2.44       |            |       |  4.08

Nlocal:          14121 ave       14121 max       14121 min
Histogram: 1 0 0 0 0 0 0 0 0 0
Nghost:              0 ave           0 max           0 min
Histogram: 1 0 0 0 0 0 0 0 0 0
Neighs:              0 ave           0 max           0 min
Histogram: 1 0 0 0 0 0 0 0 0 0
FullNghs:       117304 ave      117304 max      117304 min
Histogram: 1 0 0 0 0 0 0 0 0 0

Total # of neighbors = 117304
Ave neighs/atom = 8.3070604
Neighbor list builds = 0
Dangerous builds = 0
unfix nvt

variable efield equal -2.0  # CHANGE THIS VALUE PER RUN
fix efield all efield 0.0 0.0 ${efield}
fix efield all efield 0.0 0.0 -2

fix nvt2 all nvt temp 300.0 300.0 0.1
run 100000
Per MPI rank memory allocation (min/avg/max) = 4.054 | 4.054 | 4.054 Mbytes
   Step          Temp          E_pair         E_mol          TotEng         Press          Volume    
    100001   0              0              0              0              0              461624.37    
    200001   1383.0029     -5171.9897      0             -2647.7976      211.4825       52093148     
Loop time of 151.007 on 1 procs for 100000 steps with 14121 atoms

Performance: 57.216 ns/day, 0.419 hours/ns, 662.222 timesteps/s, 9.351 Matom-step/s
91.6% CPU use with 1 MPI tasks x 1 OpenMP threads

MPI task timing breakdown:
Section |  min time  |  avg time  |  max time  |%varavg| %total
---------------------------------------------------------------
Pair    | 78.52      | 78.52      | 78.52      |   0.0 | 52.00
Neigh   | 37.396     | 37.396     | 37.396     |   0.0 | 24.76
Comm    | 0.89946    | 0.89946    | 0.89946    |   0.0 |  0.60
Output  | 0.00023    | 0.00023    | 0.00023    |   0.0 |  0.00
Modify  | 31.519     | 31.519     | 31.519     |   0.0 | 20.87
Other   |            | 2.671      |            |       |  1.77

Nlocal:          14121 ave       14121 max       14121 min
Histogram: 1 0 0 0 0 0 0 0 0 0
Nghost:              0 ave           0 max           0 min
Histogram: 1 0 0 0 0 0 0 0 0 0
Neighs:              0 ave           0 max           0 min
Histogram: 1 0 0 0 0 0 0 0 0 0
FullNghs:       156684 ave      156684 max      156684 min
Histogram: 1 0 0 0 0 0 0 0 0 0

Total # of neighbors = 156684
Ave neighs/atom = 11.095815
Neighbor list builds = 5998
Dangerous builds = 0
unfix nvt2

region mid block INF INF INF INF 10 12 units box
group middle region mid
0 atoms in group middle

fix bend middle addforce 0.0 0.02 0.0
run 5000
WARNING: No fixes with time integration, atoms won't move
For more information see https://docs.lammps.org/err0028 (src/verlet.cpp:60)
Per MPI rank memory allocation (min/avg/max) = 43.72 | 43.72 | 43.72 Mbytes
   Step          Temp          E_pair         E_mol          TotEng         Press          Volume    
    200001   1383.0029     -5171.9897      0             -2647.7976      211.46926      52096410     
    205001   1383.0029     -5171.9897      0             -2647.7976      211.46926      52096410     
Loop time of 4.74234 on 1 procs for 5000 steps with 14121 atoms

Performance: 91.094 ns/day, 0.263 hours/ns, 1054.332 timesteps/s, 14.888 Matom-step/s
99.2% CPU use with 1 MPI tasks x 1 OpenMP threads

MPI task timing breakdown:
Section |  min time  |  avg time  |  max time  |%varavg| %total
---------------------------------------------------------------
Pair    | 3.8029     | 3.8029     | 3.8029     |   0.0 | 80.19
Neigh   | 0          | 0          | 0          |   0.0 |  0.00
Comm    | 0.000751   | 0.000751   | 0.000751   |   0.0 |  0.02
Output  | 0.000326   | 0.000326   | 0.000326   |   0.0 |  0.01
Modify  | 0.84053    | 0.84053    | 0.84053    |   0.0 | 17.72
Other   |            | 0.09781    |            |       |  2.06

Nlocal:          14121 ave       14121 max       14121 min
Histogram: 1 0 0 0 0 0 0 0 0 0
Nghost:              0 ave           0 max           0 min
Histogram: 1 0 0 0 0 0 0 0 0 0
Neighs:              0 ave           0 max           0 min
Histogram: 1 0 0 0 0 0 0 0 0 0
FullNghs:       156684 ave      156684 max      156684 min
Histogram: 1 0 0 0 0 0 0 0 0 0

Total # of neighbors = 156684
Ave neighs/atom = 11.095815
Neighbor list builds = 0
Dangerous builds = 0
unfix bend

unfix efield

fix nve all nve

# ---------- Compute Stress Tensor ----------
compute stress all stress/atom NULL
compute pzz all reduce sum c_stress[3]
variable lz equal lz
variable area equal lx*ly
variable stress_z equal c_pzz/v_area  # stress in GPa

thermo 100
thermo_style custom step temp v_stress_z pe ke etotal

# ---------- Set Dump Directory Based on E-field ----------
variable dumpdir string dump_vibrate_${efield}
variable dumpdir string dump_vibrate_-2
shell mkdir ${dumpdir}
shell mkdir dump_vibrate_-2

# ---------- Dump Vibrate Files to Specified Folder ----------
dump 1 all custom 100 ${dumpdir}/dump.vibrate.* id type x y z
dump 1 all custom 100 dump_vibrate_-2/dump.vibrate.* id type x y z

run 500000
Per MPI rank memory allocation (min/avg/max) = 44.47 | 44.47 | 44.47 Mbytes
   Step          Temp        v_stress_z       PotEng         KinEng         TotEng    
    205001   1383.0029     -4736283.7     -5171.9897      2524.1922     -2647.7976    
    205100   1431.0278     -4509922.3     -5260.2623      2611.845      -2648.4173    
    205200   1600.049      -3530182.7     -5570.6104      2920.3346     -2650.2758    
    205300   1730.0387     -2125869.4     -5808.7433      3157.5858     -2651.1575    
    205400   1724.7063     -682703.66     -5798.546       3147.8533     -2650.6927    
    205500   1611.9678      533923.31     -5591.822       2942.0883     -2649.7337    
    205600   1475.8664      1378617.1     -5342.6218      2693.6823     -2648.9395    
    205700   1391.8647      1791471.9     -5188.9104      2540.3663     -2648.5441    
    205800   1399.1101      1758003.3     -5202.1664      2553.5904     -2648.576     
    205900   1494.4066      1278961.7     -5376.5562      2727.5211     -2649.0351    
    206000   1632.4957      373165.98     -5629.4321      2979.5549     -2649.8773    
    206100   1734.0567     -889180.06     -5815.7351      3164.9192     -2650.8159    
    206200   1718.442      -2346694.1     -5787.546       3136.4199     -2651.1261    
    206300   1573.1719     -3714159.4     -5521.2986      2871.2798     -2650.0188    
    206400   1413.4241     -4594732.8     -5227.91        2579.7157     -2648.1943    
    206500   1402.7686     -4645005.1     -5208.3248      2560.2678     -2648.057     
    206600   1553.0112     -3842951.4     -5484.2987      2834.4834     -2649.8153    
    206700   1707.8438     -2508538       -5768.1575      3117.0767     -2651.0808    
    206800   1739.2083     -1044496.4     -5825.22        3174.3216     -2650.8983    
    206900   1647.1419      249324.58     -5656.2716      3006.2864     -2649.9852    
    207000   1508.7548      1199252.2     -5402.8201      2753.7087     -2649.1114    
    207100   1405.7735      1726902.5     -5214.3577      2565.7521     -2648.6056    
    207200   1387.8754      1809747.8     -5181.6121      2533.0853     -2648.5268    
    207300   1462.9705      1445893.8     -5319.0203      2670.1454     -2648.8749    
    207400   1596.4881      647100.3      -5563.466       2913.8354     -2649.6306    
    207500   1716.1905     -533733.67     -5782.9057      3132.3106     -2650.5951    
    207600   1736.4917     -1962500.7     -5820.5234      3169.3635     -2651.1599    
    207700   1619.2276     -3388297.5     -5605.7869      2955.3386     -2650.4483    
    207800   1446.082      -4435534.4     -5287.9252      2639.3213     -2648.6039    
    207900   1386.4775     -4720416.8     -5178.3774      2530.5338     -2647.8436    
    208000   1506.0101     -4119414.4     -5398.0079      2748.6992     -2649.3087    
    208100   1676.5087     -2883115.7     -5710.7821      3059.8854     -2650.8967    
    208200   1744.9629     -1418479.6     -5835.8802      3184.8247     -2651.0554    
    208300   1679.1922     -59023.497     -5715.0252      3064.7831     -2650.2421    
    208400   1544.2235      991050.19     -5467.7542      2818.4446     -2649.3096    
    208500   1425.6571      1632180.9     -5250.7389      2602.0427     -2648.6962    
    208600   1383.1512      1831254.8     -5172.9692      2524.4629     -2648.5063    
    208700   1435.6938      1583217.8     -5269.1043      2620.3612     -2648.7431    
    208800   1559.6453      894779.49     -5495.9922      2846.5917     -2649.4005    
    208900   1691.3779     -195666.51     -5737.3734      3087.0239     -2650.3495    
    209000   1744.5442     -1578843.9     -5835.1634      3184.0606     -2651.1028    
    209100   1660.8782     -3037056.3     -5682.1432      3031.3573     -2650.786     
    209200   1487.037      -4223322.3     -5363.1629      2714.0705     -2649.0924    
    209300   1383.5793     -4733656.4     -5173.0495      2525.2443     -2647.8052    
    209400   1462.527      -4352149       -5318.1394      2669.3359     -2648.8035    
    209500   1637.489      -3242803.1     -5639.2716      2988.6684     -2650.6031    
    209600   1741.111      -1800293.1     -5828.9404      3177.7944     -2651.146     
    209700   1706.4875     -388836.76     -5765.0947      3114.6011     -2650.4936    
    209800   1580.9604      754853.55     -5535.0262      2885.495      -2649.5312    
    209900   1450.9027      1507447.9     -5296.9356      2648.1199     -2648.8158    
    210000   1385.0764      1822508       -5176.4913      2527.9767     -2648.5146    
    210100   1413.4626      1690620.5     -5228.4262      2579.7859     -2648.6403    
    210200   1523.4728      1114908.7     -5429.7633      2780.5713     -2649.1919    
    210300   1661.1361      122040.77     -5681.9214      3031.8279     -2650.0935    
    210400   1742.7611     -1200990.4     -5831.7777      3180.8061     -2650.9715    
    210500   1695.674      -2667898       -5745.8815      3094.8648     -2651.0166    
    210600   1532.9838     -3964427.2     -5447.535       2797.9303     -2649.6047    
    210700   1394.3302     -4684279.1     -5192.8134      2544.8664     -2647.947     
    210800   1425.9939     -4534406       -5251.0115      2602.6574     -2648.354     
    210900   1592.9519     -3580299.5     -5557.591       2907.3814     -2650.2096    
    211000   1727.2601     -2184944.4     -5803.6668      3152.5144     -2651.1524    
    211100   1727.4585     -737349.91     -5803.6032      3152.8765     -2650.7268    
    211200   1617.5107      491812.4      -5601.9766      2952.2049     -2649.7717    
    211300   1480.7046      1352955.6     -5351.4769      2702.5128     -2648.9641    
    211400   1393.5945      1783513.7     -5192.0753      2543.5236     -2648.5517    
    211500   1396.9715      1767919.6     -5198.2535      2549.687      -2648.5665    
    211600   1489.3462      1306521.9     -5367.2937      2718.2851     -2649.0086    
    211700   1627.0799      416906.14     -5619.5087      2969.6702     -2649.8386    
    211800   1731.8188     -833563.38     -5811.6189      3160.8347     -2650.7842    
    211900   1721.8552     -2287850.2     -5793.7873      3142.6496     -2651.1378    
    212000   1580.4201     -3666041.6     -5534.5985      2884.5088     -2650.0897    
    212100   1417.7843     -4573935.2     -5235.9236      2587.6736     -2648.25      
    212200   1399.4387     -4660559       -5202.2038      2554.1901     -2648.0137    
    212300   1545.7008     -3887986.5     -5470.8802      2821.1408     -2649.7394    
    212400   1703.5949     -2566788.4     -5760.3815      3109.3218     -2651.0597    
    212500   1740.6875     -1101275.1     -5827.9475      3177.0215     -2650.9261    
    212600   1652.3111      203433.68     -5665.7456      3015.7211     -2650.0246    
    212700   1514.0684      1169115.4     -5412.5471      2763.4069     -2649.1402    
    212800   1408.4535      1714305       -5219.2612      2570.6436     -2648.6177    
    212900   1386.7204      1815019.7     -5179.4989      2530.9772     -2648.5218    
    213000   1458.4842      1468931.2     -5310.8098      2661.9571     -2648.8527    
    213100   1590.8419      686904.61     -5553.1243      2903.5302     -2649.5941    
    213200   1712.7931     -480572.68     -5776.6684      3126.1098     -2650.5585    
    213300   1738.3819     -1903370.5     -5823.97        3172.8133     -2651.1567    
    213400   1625.9832     -3335782.7     -5618.1752      2967.6685     -2650.5067    
    213500   1451.914      -4406226       -5298.6408      2649.9656     -2648.6752    
    213600   1385.1408     -4726529.7     -5175.9201      2528.0942     -2647.8259    
    213700   1499.0112     -4158200.7     -5385.1549      2735.9252     -2649.2297    
    213800   1670.9662     -2939534.1     -5700.628       3049.7694     -2650.8586    
    213900   1745.0115     -1476760.6     -5835.9875      3184.9133     -2651.0741    
    214000   1683.7362     -108373.01     -5723.358       3073.0766     -2650.2814    
    214100   1549.8213      956549.64     -5478.0036      2828.6613     -2649.3423    
    214200   1429.2058      1614960.1     -5257.2323      2608.5196     -2648.7127    
    214300   1383.0138      1831878.1     -5172.7178      2524.2121     -2648.5057    
    214400   1431.9299      1601673.8     -5262.2169      2613.4915     -2648.7254    
    214500   1554.0071      930425.64     -5485.668       2836.3011     -2649.3669    
    214600   1687.0441     -145453.32     -5729.4245      3079.114      -2650.3105    
    214700   1744.8983     -1520279.4     -5835.7938      3184.7068     -2651.087     
    214800   1666.7233     -2981311.8     -5692.854       3042.0254     -2650.8286    
    214900   1493.8601     -4186401.8     -5375.6945      2726.5236     -2649.1709    
    215000   1384.3539     -4730123.1     -5174.4734      2526.6579     -2647.8155    
    215100   1456.3789     -4383594.5     -5306.8441      2658.1147     -2648.7294    
    215200   1630.9405     -3296296.7     -5627.2651      2976.7164     -2650.5487    
    215300   1739.6353     -1859351       -5826.2539      3175.101      -2651.1529    
    215400   1710.159      -441252.26     -5771.8332      3121.3022     -2650.531     
    215500   1586.6272      716144.68     -5545.4049      2895.8378     -2649.5671    
    215600   1455.2088      1485634.3     -5304.8158      2655.9791     -2648.8367    
    215700   1385.9607      1818482.2     -5178.1091      2529.5906     -2648.5185    
    215800   1410.5404      1704459.7     -5223.0795      2574.4524     -2648.6271    
    215900   1518.0632      1146228.1     -5419.86        2770.6979     -2649.1621    
    216000   1656.1098      168893.37     -5672.7081      3022.6541     -2650.054     
    216100   1741.6524     -1143743.2     -5829.7284      3178.7825     -2650.9459    
    216200   1700.2916     -2610036.1     -5754.3351      3103.2928     -2651.0423    
    216300   1540.2636     -3920955       -5460.8993      2811.2171     -2649.6822    
    216400   1397.1475     -4671218.5     -5197.9922      2550.0084     -2647.9838    
    216500   1421.1971     -4557561.8     -5242.196       2593.9026     -2648.2934    
    216600   1585.7899     -3629712.5     -5544.4511      2894.3096     -2650.1416    
    216700   1724.2485     -2243954.4     -5798.1627      3147.0178     -2651.1449    
    216800   1730.0274     -792361.19     -5808.3251      3157.5651     -2650.76      
    216900   1623.0124      449102.4      -5612.0563      2962.2464     -2649.8099    
    217000   1485.6273      1326600.7     -5360.4868      2711.4974     -2648.9894    
    217100   1395.4745      1774841.9     -5195.5148      2546.9548     -2648.56      
    217200   1394.9805      1777122.7     -5194.6111      2546.0533     -2648.5578    
    217300   1484.3632      1333392.1     -5358.1732      2709.1904     -2648.9829    
    217400   1621.6127      460058.29     -5609.4917      2959.6916     -2649.8001    
    217500   1729.3895     -778288.71     -5807.1525      3156.4009     -2650.7516    
    217600   1725.0391     -2228902.8     -5799.6077      3148.4607     -2651.147     
    217700   1587.6232     -3617171       -5547.8147      2897.6556     -2650.1591    
    217800   1422.3982     -4551779.8     -5244.4033      2596.0946     -2648.3086    
    217900   1396.4002     -4674688.1     -5196.6184      2548.6443     -2647.9741    
    218000   1538.4032     -3932136       -5457.4841      2807.8216     -2649.6625    
    218100   1699.133      -2624825       -5752.2141      3101.1781     -2651.036     
    218200   1741.9558     -1158328       -5830.2888      3179.3362     -2650.9526    
    218300   1657.4007      156988.7      -5675.0743      3025.0103     -2650.064     
    218400   1519.4388      1138299.8     -5422.3783      2773.2087     -2649.1696    
    218500   1411.2731      1700995.7     -5224.4201      2575.7897     -2648.6304    
    218600   1385.7202      1819577.4     -5177.6692      2529.1517     -2648.5174    
    218700   1454.0998      1491267.7     -5302.7864      2653.9551     -2648.8313    
    218800   1585.1818      726082.97     -5542.7576      2893.1997     -2649.5579    
    218900   1709.2365     -427834.73     -5770.1401      3119.6186     -2650.5215    
    219000   1740.0345     -1844274.4     -5826.9809      3175.8296     -2651.1513    
    219100   1632.6236     -3282696.7     -5630.3512      2979.7883     -2650.5628    
    219200   1457.9315     -4375684.6     -5309.6967      2660.9485     -2648.7482    
    219300   1384.1254     -4731165.5     -5174.0535      2526.241      -2647.8125    
    219400   1492.1084     -4195927.2     -5372.4773      2723.3264     -2649.1509    
    219500   1665.2476     -2995576.1     -5690.15        3039.332      -2650.8179    
    219600   1744.83       -1535210.6     -5835.6734      3184.5822     -2651.0912    
    219700   1688.1619     -158221.06     -5731.4747      3081.1542     -2650.3205    
    219800   1555.4441      921391.09     -5488.2993      2838.9239     -2649.3754    
    219900   1432.8789      1597031.2     -5263.9534      2615.2236     -2648.7298    
    220000   1383.0339      1831786.9     -5172.7546      2524.2488     -2648.5058    
    220100   1428.2883      1619422.1     -5255.5534      2606.845      -2648.7084    
    220200   1548.3902      965416.63     -5475.3832      2826.0493     -2649.3339    
    220300   1682.5876     -95731.595     -5721.2516      3070.9802     -2650.2713    
    220400   1745.0208     -1461870.9     -5836           3184.9305     -2651.0695    
    220500   1672.3976     -2925171.3     -5703.2505      3052.3819     -2650.8686    
    220600   1500.7887     -4148402.4     -5388.4191      2739.1693     -2649.2498    
    220700   1385.4514     -4725109.9     -5176.4912      2528.6612     -2647.83      
    220800   1450.4076     -4413823.3     -5295.8731      2647.2162     -2648.6569    
    220900   1624.2698     -3349239.5     -5615.0332      2964.5412     -2650.492     
    221000   1737.9221     -1918457.7     -5823.1318      3171.9742     -2651.1577    
    221100   1713.6754     -494099.26     -5778.2881      3127.7202     -2650.5679    
    221200   1592.2843      676806.1      -5555.7662      2906.1628     -2649.6034    
    221300   1459.6195      1463118.8     -5312.8876      2664.0292     -2648.8583    
    221400   1387.0004      1813742.2     -5180.0113      2531.4883     -2648.523     
    221500   1407.7563      1717587.4     -5217.9855      2569.3709     -2648.6145    
    221600   1512.7069      1176870.7     -5410.0546      2760.9218     -2649.1328    
    221700   1650.9993      215197.69     -5663.3413      3013.3268     -2650.0145    
    221800   1740.3299     -1086758.9     -5827.2879      3176.3688     -2650.9191    
    221900   1704.6996     -2551942.6     -5762.4034      3111.3381     -2651.0653    
    222000   1547.5657     -3876576.9     -5474.3033      2824.5445     -2649.7588    
    222100   1400.261      -4656724.7     -5203.7154      2555.691      -2648.0244    
    222200   1416.6471     -4579372.3     -5233.8337      2585.5981     -2648.2355    
    222300   1578.5742     -3678393.6     -5531.2116      2881.1398     -2650.0718    
    222400   1721.0058     -2302877.5     -5792.2344      3141.0994     -2651.135     
    222500   1732.4083     -847724.41     -5812.703       3161.9106     -2650.7924    
    222600   1628.4671      405799.57     -5622.0504      2972.202      -2649.8484    
    222700   1490.6304      1299554.3     -5369.6443      2720.6289     -2649.0153    
    222800   1397.5033      1765456.8     -5199.2265      2550.6576     -2648.5689    
    222900   1393.1388      1785612.4     -5191.2414      2542.6917     -2648.5497    
    223000   1479.4617      1359570.2     -5349.2021      2700.2444     -2648.9577    
    223100   1616.0999      502616        -5599.3919      2949.63       -2649.7619    
    223200   1726.7734     -723369.36     -5802.3442      3151.626      -2650.7182    
    223300   1727.9914     -2169874.2     -5805.0031      3153.8492     -2651.1539    
    223400   1594.7697     -3567575.8     -5560.9257      2910.6991     -2650.2267    
    223500   1427.2564     -4528283.4     -5253.3316      2604.9616     -2648.3699    
    223600   1393.6594     -4687381.3     -5191.5803      2543.6421     -2647.9382    
    223700   1531.1311     -3975372.6     -5444.1337      2794.5488     -2649.5848    
    223800   1694.4626     -2682623.9     -5743.6635      3092.6538     -2651.0097    
    223900   1743.0094     -1215639.8     -5832.2372      3181.2593     -2650.9779    
    224000   1662.4046      109997.46     -5684.2467      3034.1431     -2650.1035    
    224100   1524.8613      1106808.2     -5432.3052      2783.1055     -2649.1997    
    224200   1414.2302      1686975       -5229.8306      2581.1868     -2648.6438    
    224300   1384.8757      1823420.9     -5176.1241      2527.6104     -2648.5138    
    224400   1449.821       1512902.1     -5294.9561      2646.1456     -2648.8105    
    224500   1579.5134      764630.35     -5532.3761      2882.854      -2649.5221    
    224600   1705.5263     -375531.13     -5763.3309      3112.8469     -2650.484     
    224700   1741.4496     -1785232.1     -5829.5563      3178.4123     -2651.1439    
    224800   1639.1395     -3229067       -5642.2974      2991.6807     -2650.6166    
    224900   1464.1229     -4343932.2     -5321.0712      2672.2486     -2648.8226    
    225000   1383.4336     -4734320.7     -5172.7816      2524.9783     -2647.8033    
    225100   1485.3143     -4232568.4     -5359.9986      2710.9262     -2649.0724    
    225200   1659.3602     -3051215.4     -5679.3613      3028.5866     -2650.7747    
    225300   1744.4166     -1593812       -5834.9342      3183.8276     -2651.1066    
    225400   1692.4636     -208558.13     -5739.3648      3089.0054     -2650.3594    
    225500   1561.0869      885578.37     -5498.632       2849.2229     -2649.4091    
    225600   1436.6736      1578394.8     -5270.8972      2622.1495     -2648.7477    
    225700   1383.2114      1830981.3     -5173.0795      2524.5729     -2648.5066    
    225800   1424.7717      1636462       -5249.1188      2600.4267     -2648.6921    
    225900   1542.7997      999748.66     -5465.1473      2815.8459     -2649.3014    
    226000   1678.0144     -46510.805     -5712.8654      3062.6334     -2650.232     
    226100   1744.914      -1403635.9     -5835.7858      3184.7354     -2651.0504    
    226200   1677.8941     -2868660.9     -5713.3199      3062.4139     -2650.906     
    226300   1507.81       -4109349.8     -5401.3131      2751.9842     -2649.3289    
    226400   1386.8697     -4718620.8     -5179.0986      2531.2498     -2647.8488    
    226500   1444.6248     -4442813.6     -5285.2477      2636.6617     -2648.586     
    226600   1617.4864     -3401604.1     -5602.5936      2952.1606     -2650.4331    
    226700   1735.9714     -1977593.3     -5819.5742      3168.4138     -2651.1604    
    226800   1717.0314     -547366.36     -5784.4497      3133.8454     -2650.6043    
    226900   1597.926       636842.89     -5566.0999      2916.4599     -2649.6401    
    227000   1464.1314      1439902.8     -5321.1447      2672.2641     -2648.8806    
    227100   1388.1949      1808288.1     -5182.1966      2533.6684     -2648.5281    
    227200   1405.1122      1730003.3     -5213.1477      2564.545      -2648.6027    
    227300   1507.4084      1206833.8     -5400.3555      2751.2514     -2649.1041    
    227400   1645.8107      260945.97     -5653.8319      3003.8567     -2649.9752    
    227500   1738.7974     -1030052.6     -5824.4629      3173.5718     -2650.891     
    227600   1708.8935     -2493641.6     -5770.0783      3118.9925     -2651.0858    
    227700   1554.8773     -3831320.3     -5487.7239      2837.8894     -2649.8345    
    227800   1403.6643     -4640809.1     -5209.9711      2561.9024     -2648.0686    
    227900   1412.3532     -4599820.8     -5225.9416      2577.761      -2648.1806    
    228000   1571.3164     -3726314.8     -5517.8937      2867.8933     -2650.0004    
    228100   1717.5345     -2361691.4     -5785.8864      3134.7637     -2651.1227    
    228200   1734.5966     -903426.2      -5816.7284      3165.9046     -2650.8239    
    228300   1633.8688      361910.42     -5631.9482      2982.061      -2649.8872    
    228400   1495.7099      1271818.3     -5378.9418      2729.8998     -2649.0419    
    228500   1399.6794      1755358.5     -5203.2078      2554.6293     -2648.5785    
    228600   1391.4474      1793388.4     -5188.1471      2539.6047     -2648.5423    
    228700   1474.6457      1385054.5     -5340.3876      2691.4544     -2648.9333    
    228800   1610.5474      544573.04     -5589.2199      2939.4958     -2649.7241    
    228900   1723.9752     -668818.32     -5797.2028      3146.5189     -2650.6839    
    229000   1730.7103     -2110786.1     -5809.9699      3158.8114     -2651.1585    
    229100   1601.8483     -3517283.9     -5573.9111      2923.6187     -2650.2924    
    229200   1432.3491     -4503463.8     -5262.6905      2614.2567     -2648.4338    
    229300   1391.2222     -4698628.6     -5187.0999      2539.1937     -2647.9062    
    229400   1523.8971     -4017669       -5430.8522      2781.3457     -2649.5066    
    229500   1689.5886     -2740160.4     -5734.7389      3083.7581     -2650.9807    
    229600   1743.8453     -1273194.9     -5833.7866      3182.7848     -2651.0018    
    229700   1667.3168      62468.028     -5693.2518      3043.1087     -2650.1431    
    229800   1530.3312      1074643.3     -5442.3192      2793.0889     -2649.2303    
    229900   1417.3226      1672243.4     -5235.4889      2586.831      -2648.6578    
    230000   1384.1874      1826550       -5174.8649      2526.3541     -2648.5108    
    230100   1445.651       1533833.1     -5287.3251      2638.5346     -2648.7904    
    230200   1573.8422      802541.92     -5521.99        2872.5032     -2649.4868    
    230300   1701.6679     -323672.9      -5756.2507      3105.8046     -2650.4461    
    230400   1742.6276     -1726263       -5831.6969      3180.5624     -2651.1346    
    230500   1645.5215     -3174920.8     -5653.9968      3003.3288     -2650.668     
    230600   1470.476      -4310991.5     -5332.7424      2683.844      -2648.8983    
    230700   1383.0667     -4735992.6     -5172.1072      2524.3088     -2647.7984    
    230800   1478.6417     -4268099.2     -5347.7423      2698.7476     -2648.9946    
    230900   1653.3115     -3106425.7     -5668.2757      3017.5468     -2650.7289    
    231000   1743.7695     -1652547.2     -5833.7668      3182.6466     -2651.1201    
    231100   1696.6354     -259374.4      -5747.0176      3096.6195     -2650.3981    
    231200   1566.7445      849115.5      -5508.9921      2859.5488     -2649.4433    
    231300   1440.5871      1559051.8     -5278.0585      2629.2922     -2648.7663    
    231400   1383.5464      1829461.2     -5173.6922      2525.1842     -2648.508     
    231500   1421.3828      1652792.9     -5242.9179      2594.2415     -2648.6764    
    231600   1537.2407      1033418.1     -5454.9693      2805.6999     -2649.2695    
    231700   1673.3302      2199.8612     -5704.2767      3054.0841     -2650.1926    
    231800   1744.5799     -1345591.2     -5835.1555      3184.1257     -2651.0297    
    231900   1683.2061     -2811806.5     -5723.05        3072.1091     -2650.9408    
    232000   1514.9111     -4069269.9     -5414.3529      2764.945      -2649.4079    
    232100   1388.6057     -4710661.1     -5182.29        2534.4182     -2647.8717    
    232200   1439.0419     -4470544.1     -5274.9892      2626.4721     -2648.5171    
    232300   1610.6005     -3453362.7     -5589.9647      2939.5928     -2650.3719    
    232400   1733.7835     -2036737.7     -5815.5815      3164.4206     -2651.1609    
    232500   1720.2216     -601041.88     -5790.3081      3139.668      -2650.6401    
    232600   1603.5468      596260.33     -5576.3957      2926.7186     -2649.6771    
    232700   1468.7409      1415987.6     -5329.5808      2680.6772     -2648.9036    
    232800   1389.5432      1802119.9     -5184.6634      2536.1294     -2648.534     
    232900   1402.61        1741706.9     -5208.5697      2559.9782     -2648.5915    
    233000   1502.1724      1236114.8     -5390.7709      2741.6948     -2649.0761    
    233100   1640.5499      306130.68     -5644.1909      2994.2549     -2649.936     
    233200   1737.0587     -973638.98     -5821.2603      3170.3984     -2650.8619    
    233300   1712.8691     -2435156.7     -5777.3523      3126.2486     -2651.1038    
    233400   1562.1862     -3785213       -5501.1381      2851.2292     -2649.909     
    233500   1407.3502     -4623484.2     -5216.7461      2568.6298     -2648.1163    
    233600   1408.324      -4618891.7     -5218.536       2570.4072     -2648.1288    
    233700   1564.0284     -3773448.2     -5504.5191      2854.5915     -2649.9276    
    233800   1713.8373     -2420373.7     -5779.1236      3128.0157     -2651.1079    
    233900   1736.5879     -959452.82     -5820.3934      3169.5391     -2650.8543    
    234000   1639.2117      317441.67     -5641.7388      2991.8126     -2649.9261    
    234100   1500.8616      1243394.9     -5388.3716      2739.3025     -2649.0692    
    234200   1402.0013      1744547.3     -5207.456       2558.8672     -2648.5888    
    234300   1389.9077      1800450.7     -5185.3301      2536.7945     -2648.5356    
    234400   1469.919       1409843.1     -5331.7369      2682.8274     -2648.9095    
    234500   1604.961       585923.44     -5578.9863      2929.2997     -2649.6865    
    234600   1720.9997     -614648.26     -5791.7373      3141.0883     -2650.649     
    234700   1733.1941     -2051659.8     -5814.5055      3163.3448     -2651.1607    
    234800   1608.8481     -3466323.3     -5586.7505      2936.3943     -2650.3561    
    234900   1437.6662     -4477339.5     -5272.4611      2623.9611     -2648.5       
    235000   1389.0935     -4708421       -5183.1867      2535.3086     -2647.8782    
    235100   1516.714      -4058997.9     -5417.6633      2768.2354     -2649.4278    
    235200   1684.5165     -2797409.8     -5725.45        3074.5008     -2650.9492    
    235300   1744.4601     -1330977.6     -5834.9312      3183.907      -2651.0243    
    235400   1672.1315      14408.752     -5702.0789      3051.8963     -2650.1826    
    235500   1535.8437      1041808.4     -5452.4115      2803.15       -2649.2615    
    235600   1420.5482      1656801.4     -5241.3908      2592.7182     -2648.6726    
    235700   1383.6557      1828964.8     -5173.8922      2525.3837     -2648.5085    
    235800   1441.593       1554059.6     -5279.8991      2631.1281     -2648.771     
    235900   1568.1737      839813.05     -5511.6093      2862.1573     -2649.452     
    236000   1697.6668     -272270.76     -5748.9098      3098.502      -2650.4078    
    236100   1743.5692     -1667386.1     -5833.4042      3182.281      -2651.1233    
    236200   1651.7607     -3120285.3     -5665.4334      3014.7165     -2650.7169    
    236300   1476.9787     -4276885.9     -5344.6877      2695.7126     -2648.9751    
    236400   1383.0256     -4736179.9     -5172.0316      2524.2337     -2647.7979    
    236500   1472.1031     -4302495       -5335.7314      2686.8138     -2648.9176    
    236600   1647.1095     -3161180.4     -5656.9079      3006.2273     -2650.6806    
    236700   1742.8874     -1711397.9     -5832.1685      3181.0366     -2651.1319    
    236800   1700.6716     -310659.8      -5754.4227      3103.9862     -2650.4365    
    236900   1572.4115      812006.66     -5519.3699      2869.8919     -2649.478     
    237000   1444.6164      1539003.1     -5285.4318      2636.6463     -2648.7855    
    237100   1384.0384      1827226.7     -5174.5924      2526.0822     -2648.5102    
    237200   1418.124       1668414.1     -5236.9552      2588.2937     -2648.6615    
    237300   1531.7182      1066421.6     -5444.8586      2795.6205     -2649.2381    
    237400   1668.5411      50391.48      -5695.4963      3045.3432     -2650.1531    
    237500   1744.0213     -1287753.7     -5834.1138      3183.1062     -2651.0076    
    237600   1688.3273     -2754633.5     -5732.4291      3081.4561     -2650.973     
    237700   1522.0793     -4028189.3     -5427.5148      2778.028      -2649.4867    
    237800   1390.6558     -4701236.9     -5186.0587      2538.1599     -2647.8987    
    237900   1433.67       -4496994.5     -5265.1177      2616.6674     -2648.4503    
    238000   1603.6224     -3504487.6     -5577.1652      2926.8566     -2650.3087    
    238100   1731.3592     -2095870.2     -5811.1551      3159.9958     -2651.1593    
    238200   1723.2409     -655113.84     -5795.8539      3145.1788     -2650.6752    
    238300   1609.1408      555063.92     -5586.6431      2936.9286     -2649.7146    
    238400   1473.4445      1391374.8     -5338.1892      2689.262      -2648.9272    
    238500   1391.0446      1795237.7     -5187.41        2538.8695     -2648.5405    
    238600   1400.2515      1752697.9     -5204.2547      2555.6736     -2648.581     
    238700   1497.0032      1264711.3     -5381.3089      2732.2602     -2649.0487    
    238800   1635.2227      350744.58     -5634.4291      2984.5321     -2649.897     
    238900   1735.1178     -917532.6      -5817.6875      3166.8558     -2650.8317    
    239000   1716.6228     -2376511.3     -5784.2189      3133.0997     -2651.1192    
    239100   1569.4799     -3738282.8     -5514.5235      2864.5413     -2649.9822    
    239200   1411.3112     -4604763.3     -5224.0265      2575.8593     -2648.1673    
    239300   1404.5679     -4636570.2     -5211.6321      2563.5517     -2648.0803    
    239400   1556.7222     -3819765.8     -5491.11        2841.2566     -2649.8534    
    239500   1709.9173     -2478901.2     -5771.9517      3120.8611     -2651.0906    
    239600   1738.378      -1015790.3     -5823.6901      3172.8063     -2650.8838    
    239700   1644.4899      272400.31     -5651.4113      3001.446      -2649.9653    
    239800   1506.0812      1214286.4     -5397.9261      2748.829      -2649.097     
    239900   1404.4674      1733023.5     -5211.968       2563.3682     -2648.5998    
    240000   1388.5206      1806799.1     -5182.7925      2534.2629     -2648.5296    
    240100   1465.2854      1433934.4     -5323.2567      2674.3703     -2648.8863    
    240200   1599.3464      626661.41     -5568.7017      2919.0523     -2649.6494    
    240300   1717.8522     -560871.57     -5785.9568      3135.3434     -2650.6134    
    240400   1735.4417     -1992516.4     -5818.6077      3167.447      -2651.1607    
    240500   1615.7583     -3414722       -5599.4243      2949.0064     -2650.4178    
    240600   1443.1969     -4449930.1     -5282.6239      2634.0555     -2648.5684    
    240700   1387.2779     -4716750.9     -5179.849       2531.9948     -2647.8542    
    240800   1509.5947     -4099332.8     -5404.5905      2755.2416     -2649.3488    
    240900   1679.2521     -2854347       -5715.8075      3064.8924     -2650.915     
    241000   1744.851      -1388971.6     -5835.6658      3184.6205     -2651.0453    
    241100   1676.8427     -34171.781     -5710.717       3060.4949     -2650.2221    
    241200   1541.3939      1008306.7     -5462.5734      2813.2801     -2649.2933    
    241300   1423.9045      1640649.5     -5247.532       2598.8439     -2648.6881    
    241400   1383.2811      1830665.1     -5173.2069      2524.7        -2648.5069    
    241500   1437.65        1573580.8     -5272.6838      2623.9315     -2648.7523    
    241600   1562.5132      876439.32     -5501.2438      2851.8261     -2649.4177    
    241700   1693.5287     -221335.15     -5741.3186      3090.9493     -2650.3692    
    241800   1744.2754     -1608620.1     -5834.6801      3183.57       -2651.1102    
    241900   1657.8489     -3065187.4     -5676.5916      3025.8282     -2650.7634    
    242000   1483.6187     -4241639.1     -5356.8842      2707.8315     -2649.0527    
    242100   1383.3103     -4734882.5     -5172.555       2524.7534     -2647.8016    
    242200   1465.7111     -4335731.9     -5323.989       2675.1473     -2648.8416    
    242300   1640.7627     -3215452.6     -5645.2733      2994.6434     -2650.6298    
    242400   1741.7691     -1770345.5     -5830.1374      3178.9956     -2651.1418    
    242500   1704.5665     -362403.96     -5761.5696      3111.0951     -2650.4745    
    242600   1578.0825      774256.25     -5529.7556      2880.2424     -2649.5132    
    242700   1448.7585      1518249.7     -5293.0116      2644.2062     -2648.8054    
    242800   1384.6873      1824277.8     -5175.7794      2527.2664     -2648.513     
    242900   1414.9978      1683325       -5231.2351      2582.5878     -2648.6472    
    243000   1526.2371      1098755.8     -5434.824       2785.6167     -2649.2073    
    243100   1663.6529      98055.394     -5686.535       3036.4215     -2650.1135    
    243200   1743.241      -1230139.6     -5832.666       3181.682      -2650.984     
    243300   1693.2518     -2697167.1     -5741.4466      3090.444      -2651.0026    
    243400   1529.3017     -3986134.5     -5440.7751      2791.21       -2649.5651    
    243500   1393.0156     -4690355.9     -5190.3968      2542.467      -2647.9297    
    243600   1428.5197     -4522145.1     -5255.6531      2607.2673     -2648.3858    
    243700   1596.5626     -3554950.9     -5564.2148      2913.9714     -2650.2434    
    243800   1728.6995     -2154970       -5806.2968      3155.1415     -2651.1553    
    243900   1726.0843     -709569.93     -5801.078       3150.3684     -2650.7096    
    244000   1614.7024      513259.39     -5596.8317      2947.0793     -2649.7524    
    244100   1478.2383      1366065.9     -5346.963       2698.0115     -2648.9515    
    244200   1392.6978      1787641.7     -5190.4346      2541.8868     -2648.5478    
    244300   1398.0385      1762976.1     -5200.2057      2551.6345     -2648.5713    
    244400   1491.905       1292620.9     -5371.9773      2722.9553     -2649.022     
    244500   1629.8353      394780.62     -5624.5573      2974.6992     -2649.8582    
    244600   1732.9787     -861747.54     -5813.7522      3162.9518     -2650.8004    
    244700   1720.1514     -2317728.4     -5790.6721      3139.54       -2651.1321    
    244800   1576.7464     -3690557.7     -5527.8578      2877.8039     -2650.0539    
    244900   1415.5392     -4584661       -5231.7974      2583.576      -2648.2214    
    245000   1401.0927     -4652842.6     -5205.2441      2557.2089     -2648.0352    
    245100   1549.4101     -3865239.6     -5477.6889      2827.9109     -2649.778     
    245200   1705.7782     -2537250.9     -5764.3773      3113.3066     -2651.0707    
    245300   1739.9629     -1072424.1     -5826.6111      3175.699      -2650.9121    
    245400   1649.6973      226793.53     -5660.9549      3010.9504     -2650.0046    
    245500   1511.3643      1184495.1     -5407.597       2758.4715     -2649.1255    
    245600   1407.0758      1720787.3     -5216.7405      2568.129      -2648.6115    
    245700   1387.2872      1812433.4     -5180.536       2532.0118     -2648.5242    
    245800   1460.7485      1457327       -5314.9537      2666.0899     -2648.8639    
    245900   1593.7095      666781.4      -5558.3766      2908.764      -2649.6126    
    246000   1714.5375     -507500.3      -5779.8709      3129.2937     -2650.5771    
    246100   1737.4523     -1933376.7     -5822.2753      3171.1167     -2651.1586    
    246200   1622.5684     -3362507.7     -5611.9134      2961.436      -2650.4774    
    246300   1448.9303     -4421255.8     -5293.1587      2644.5198     -2648.6388    
    246400   1385.7791     -4723611.6     -5177.0937      2529.2593     -2647.8344    
    246500   1502.552      -4138647.1     -5391.6575      2742.3877     -2649.2698    
    246600   1673.8015     -2910946.6     -5705.8226      3054.9443     -2650.8783    
    246700   1745.0154     -1447160.2     -5835.9854      3184.9206     -2651.0648    
    246800   1681.4445     -83264.714     -5719.1553      3068.8939     -2650.2614    
    246900   1546.9769      974141.5      -5472.7955      2823.4699     -2649.3256    
    247000   1427.3891      1623788.4     -5253.9081      2605.2038     -2648.7042    
    247100   1383.0638      1831651       -5172.8094      2524.3034     -2648.506     
    247200   1433.825       1592395.6     -5265.6847      2616.9504     -2648.7343    
    247300   1556.8662      912416.47     -5490.9033      2841.5194     -2649.3839    
    247400   1689.2592     -170876.23     -5733.4873      3083.157      -2650.3303    
    247500   1744.7477     -1549983.1     -5835.5271      3184.4318     -2651.0952    
    247600   1663.7777     -3009653.8     -5687.4566      3036.6493     -2650.8073    
    247700   1490.3833     -4205275.8     -5369.309       2720.178      -2649.131     
    247800   1383.9203     -4732101.4     -5173.6763      2525.8666     -2647.8097    
    247900   1459.4778     -4367786.3     -5312.5375      2663.7706     -2648.7668    
    248000   1634.2798     -3269215.2     -5633.3878      2982.8111     -2650.5766    
    248100   1740.4139     -1829371.2     -5827.6717      3176.5221     -2651.1496    
    248200   1708.3147     -414596.21     -5768.4482      3117.9361     -2650.5121    
    248300   1583.7521      735868.85     -5540.1391      2890.5903     -2649.5488    
    248400   1453.0101      1496792.7     -5300.7922      2651.9662     -2648.826     
    248500   1385.4924      1820614.6     -5177.2524      2528.736      -2648.5164    
    248600   1412.0064      1697525.1     -5225.7617      2577.128      -2648.6337    
    248700   1520.8023      1130417.6     -5424.8743      2775.6972     -2649.1772    
    248800   1658.6716      145183.2      -5677.4038      3027.3298     -2650.074     
    248900   1742.242      -1172764.9     -5830.8177      3179.8586     -2650.9591    
    249000   1697.974      -2639432.1     -5750.0924      3099.0628     -2651.0296    
    249100   1536.5654     -3943132.6     -5454.1104      2804.4674     -2649.643     
    249200   1395.6803     -4678026.7     -5195.2951      2547.3305     -2647.9647    
    249300   1423.6013     -4545977.1     -5246.6144      2598.2906     -2648.3238    
    249400   1589.4321     -3604724.5     -5551.1335      2900.9572     -2650.1763    
    249500   1725.8059     -2214015.7     -5801.0093      3149.8603     -2651.149     
    249600   1728.7468     -764397.57     -5805.9712      3155.2279     -2650.7432    
    249700   1620.2258      470852.66     -5606.9508      2957.1603     -2649.7905    
    249800   1483.1186      1340062.7     -5355.8953      2706.9188     -2648.9765    
    249900   1394.5017      1779332.1     -5193.735       2545.1793     -2648.5557    
    250000   1395.9724      1772541.2     -5196.4257      2547.8636     -2648.5621    
    250100   1486.8822      1319841.6     -5362.7838      2713.7879     -2648.9959    
    250200   1624.3934      438232.01     -5614.5865      2964.7669     -2649.8196    
    250300   1730.646      -806297.62     -5809.4625      3158.6942     -2650.7683    
    250400   1723.452      -2258830.8     -5796.7067      3145.5641     -2651.1426    
    250500   1583.9739     -3642065.7     -5541.1191      2890.995      -2650.1241    
    250600   1420.0254     -4563192.6     -5240.0426      2591.7641     -2648.2785    
    250700   1397.9054     -4667696.2     -5199.3854      2551.3916     -2647.9937    
    250800   1542.1044     -3909842       -5464.2785      2814.5769     -2649.7016    
    250900   1701.4238     -2595399       -5756.4075      3105.3592     -2651.0483    
    251000   1741.3387     -1129339.7     -5829.1493      3178.21       -2650.9393    
    251100   1654.828       180628.79     -5670.3587      3020.3147     -2650.044     
    251200   1516.7065      1154023.7     -5417.3764      2768.2218     -2649.1546    
    251300   1409.8248      1707839.2     -5221.7702      2573.1464     -2648.6238    
    251400   1386.2084      1817353.6     -5178.5623      2530.0427     -2648.5195    
    251500   1456.312       1480019.4     -5306.8346      2657.9925     -2648.8421    
    251600   1588.0557      706278.08     -5548.0213      2898.4451     -2649.5762    
    251700   1711.0611     -454546.22     -5773.489       3122.9487     -2650.5404    
    251800   1739.2254     -1874260.8     -5825.5073      3174.353      -2651.1543    
    251900   1629.2685     -3309708.1     -5624.1994      2973.6647     -2650.5346    
    252000   1454.8551     -4391337.4     -5304.0445      2655.3335     -2648.711     
    252100   1384.6004     -4728997.6     -5174.9267      2527.1079     -2647.8188    
    252200   1495.5988     -4176914.7     -5378.8879      2729.6971     -2649.1908    
    252300   1668.1714     -2967182.9     -5695.5074      3044.6685     -2650.8389    
    252400   1744.951      -1505526.5     -5835.8857      3184.8029     -2651.0828    
    252500   1685.931      -132860.92     -5727.383       3077.0824     -2650.3007    
    252600   1552.5876      939316.43     -5483.0689      2833.7104     -2649.3585    
    252700   1430.9994      1606218.8     -5260.5142      2611.7932     -2648.721     
    252800   1383.004       1831922.4     -5172.6999      2524.1942     -2648.5057    
    252900   1430.121       1610503.1     -5258.9069      2610.19       -2648.7169    
    253000   1551.2378      947740.45     -5480.5973      2831.2468     -2649.3506    
    253100   1684.8643     -120903.88     -5725.4268      3075.1355     -2650.2913    
    253200   1744.9875     -1491493.3     -5835.9481      3184.8695     -2651.0786    
    253300   1669.5396     -2953711       -5698.0143      3047.1657     -2650.8486    
    253400   1497.2599     -4167820.7     -5381.9386      2732.7288     -2649.2098    
    253500   1384.8542     -4727838.9     -5175.3932      2527.5711     -2647.8221    
    253600   1453.4153     -4398635.3     -5301.3991      2652.7056     -2648.6935    
    253700   1627.6699     -3322441       -5621.2681      2970.747      -2650.5211    
    253800   1738.8213     -1888455.5     -5824.7708      3173.6153     -2651.1555    
    253900   1711.9105     -467225.62     -5775.0482      3124.499      -2650.5492    
    254000   1589.4148      696849.24     -5550.5105      2900.9256     -2649.5849    
    254100   1457.3681      1474633.3     -5308.7675      2659.9202     -2648.8473    
    254200   1386.4534      1816237.1     -5179.0104      2530.4898     -2648.5206    
    254300   1409.1519      1711013.9     -5220.5389      2571.9181     -2648.6208    
    254400   1515.4183      1161404       -5415.0182      2765.8706     -2649.1476    
    254500   1653.6031      191766.77     -5668.1136      3018.079      -2650.0345    
    254600   1741.0276     -1115645.3     -5828.575       3177.6421     -2650.9329    
    254700   1702.489      -2581453.1     -5758.3573      3107.3034     -2651.054     
    254800   1543.8578     -3899210.8     -5467.4971      2817.7771     -2649.72      
    254900   1398.6443     -4664258.9     -5200.7435      2552.7401     -2648.0034    
    255000   1418.9249     -4568472.5     -5238.0199      2589.7554     -2648.2645    
    255100   1582.2422     -3653780.6     -5537.9419      2887.8345     -2650.1074    
    255200   1722.6803     -2272985.6     -5795.2958      3144.1555     -2651.1403    
    255300   1731.2237     -819583.83     -5810.5247      3159.7486     -2650.7761    
    255400   1625.705       427849.9      -5616.9897      2967.1608     -2649.8288    
    255500   1488.0815      1313366.9     -5364.9788      2715.9767     -2649.0021    
    255600   1396.4551      1770309       -5197.3089      2548.7446     -2648.5643    
    255700   1394.0548      1781393       -5192.9173      2544.3636     -2648.5537    
    255800   1481.9389      1346371.2     -5353.7359      2704.7655     -2648.9704    
    255900   1618.903       481092.19     -5604.5274      2954.7461     -2649.7813    
    256000   1728.1241     -751196.29     -5804.8266      3154.0914     -2650.7352    
    256100   1726.5222     -2199840.7     -5802.3182      3151.1675     -2651.1507    
    256200   1591.1505     -3592834.7     -5554.2862      2904.0936     -2650.1926    
    256300   1424.7609     -4540374.6     -5248.7454      2600.4069     -2648.3385    
    256400   1395.0128     -4681119.5     -5194.0681      2546.1122     -2647.9559    
    256500   1534.8178     -3953545.4     -5450.902       2801.2777     -2649.6243    
    256600   1696.8586     -2653321.6     -5748.0503      3097.027      -2651.0233    
    256700   1742.5017     -1186522       -5831.2978      3180.3327     -2650.9652    
    256800   1659.8761      133913.78     -5679.6118      3029.5283     -2650.0835    
    256900   1522.1031      1122874.8     -5427.2557      2778.0714     -2649.1843    
    257000   1412.7124      1694179.5     -5227.0535      2578.4166     -2648.6369    
    257100   1385.2848      1821559.6     -5176.8726      2528.3571     -2648.5155    
    257200   1451.9792      1502010.2     -5298.9055      2650.0845     -2648.821     
    257300   1582.3909      745146.3      -5537.646       2888.1058     -2649.5402    
    257400   1707.4282     -402020.79     -5766.8212      3116.3181     -2650.5031    
    257500   1740.761      -1815188.8     -5828.3036      3177.1557     -2651.1479    
    257600   1635.8488     -3256350.9     -5636.2643      2985.6747     -2650.5896    
    257700   1460.9597     -4360196.8     -5315.2601      2666.4754     -2648.7847    
    257800   1383.7442     -4732904.7     -5173.3526      2525.5452     -2647.8074    
    257900   1488.748      -4214109.8     -5366.3053      2717.1932     -2649.1122    
    258000   1662.3687     -3023029.8     -5684.8746      3034.0777     -2650.797     
    258100   1744.6555     -1564053.3     -5835.3627      3184.2637     -2651.099     
    258200   1690.2963     -182951.02     -5735.3895      3085.0498     -2650.3397    
    258300   1558.221       903835.22     -5493.384       2843.9921     -2649.3919    
    258400   1434.7327      1587941.3     -5267.3457      2618.6071     -2648.7386    
    258500   1383.1017      1831479.4     -5172.8786      2524.3725     -2648.5061    
    258600   1426.5406      1627902.7     -5252.3555      2603.6553     -2648.7003    
    258700   1545.6333      982407.37     -5470.3354      2821.0176     -2649.3178    
    258800   1680.3496     -71427.698     -5717.1475      3066.8955     -2650.252     
    258900   1744.9967     -1433168       -5835.9468      3184.8865     -2651.0603    
    259000   1675.1272     -2897385.2     -5708.2513      3057.3639     -2650.8873    
    259100   1504.2358     -4129299.4     -5394.7496      2745.4608     -2649.2888    
    259200   1386.11       -4722098.2     -5177.7019      2529.8632     -2647.8387    
    259300   1447.5354     -4428256.8     -5290.5957      2641.9739     -2648.6217    
    259400   1620.9425     -3375102.5     -5608.9317      2958.4684     -2650.4633    
    259500   1736.991      -1947579       -5821.4341      3170.2748     -2651.1593    
    259600   1715.3486     -520280.96     -5781.3599      3130.774      -2650.5859    
    259700   1595.065       657202.38     -5560.8595      2911.2381     -2649.6214    
    259800   1461.8291      1451772.6     -5316.9314      2668.0621     -2648.8692    
    259900   1387.5694      1811145.4     -5181.0522      2532.5268     -2648.5254    
    260000   1406.4365      1723791.1     -5215.5707      2566.9621     -2648.6086    
    260100   1510.0899      1191712.3     -5405.2641      2756.1455     -2649.1186    
    260200   1648.4534      237798.19     -5658.6752      3008.68       -2649.9951    
    260300   1739.6012     -1058796       -5825.9442      3175.0388     -2650.9054    
    260400   1706.7921     -2523254.5     -5766.2328      3115.1571     -2651.0757    
    260500   1551.1661     -3854396.5     -5480.9121      2831.1159     -2649.7962    
    260600   1401.9013     -4649063.4     -5206.7305      2558.6847     -2648.0458    
    260700   1414.4999     -4589614.2     -5229.8871      2581.679      -2648.2081    
    260800   1575.0043     -3702091       -5524.6611      2874.6243     -2650.0368    
    260900   1719.3247     -2331857.7     -5789.1602      3138.031      -2651.1293    
    261000   1733.5103     -875115.49     -5814.73        3163.922      -2650.808     
    261100   1631.1344      384257.49     -5626.9377      2977.0702     -2649.8675    
    261200   1493.1227      1285980.6     -5374.2062      2725.1778     -2649.0283    
    261300   1398.5566      1760572.6     -5201.1537      2552.5802     -2648.5735    
    261400   1392.2869      1789531.2     -5189.6829      2541.137      -2648.546     
    261500   1477.079       1372207.8     -5344.8411      2695.8954     -2648.9456    
    261600   1613.3699      523354.84     -5594.3906      2944.6474     -2649.7433    
    261700   1725.4177     -696456.73     -5799.8532      3149.1518     -2650.7014    
    261800   1729.3597     -2140780       -5807.5029      3156.3465     -2651.1565    
    261900   1598.265      -3542892.9     -5567.3379      2917.0786     -2650.2593    
    262000   1429.7358     -4516224.2     -5257.8881      2609.487      -2648.4011    
    262100   1392.4209     -4693101.7     -5189.3034      2541.3815     -2647.9219    
    262200   1527.5628     -3996322.3     -5437.5826      2788.0363     -2649.5463    
    262300   1692.0873     -2710994.3     -5739.3144      3088.3186     -2650.9957    
    262400   1743.4485     -1243955.6     -5833.0505      3182.0607     -2650.9898    
    262500   1664.8356      86656.463     -5688.7032      3038.5802     -2650.123     
    262600   1527.5495      1091051.3     -5437.2266      2788.0119     -2649.2147    
    262700   1415.7364      1679808.6     -5232.5865      2583.9359     -2648.6506    
    262800   1384.5171      1825051.2     -5175.4682      2526.956      -2648.5122    
    262900   1447.7535      1523298.3     -5291.1726      2642.3721     -2648.8006    
    263000   1576.7204      783381.14     -5527.261       2877.7564     -2649.5047    
    263100   1703.6443     -349935.17     -5759.8772      3109.4118     -2650.4654    
    263200   1742.0593     -1756180.1     -5830.6648      3179.5252     -2651.1396    
    263300   1642.2998     -3202463.4     -5648.0911      2997.4489     -2650.6422    
    263400   1467.2322     -4327856.3     -5326.7835      2677.9237     -2648.8598    
    263500   1383.2123     -4735329.6     -5172.3747      2524.5743     -2647.8003    
    263600   1482.0121     -4250207.2     -5353.9333      2704.8992     -2649.034     
    263700   1656.4009     -3078461.1     -5673.9379      3023.1855     -2650.7524    
    263800   1744.1272     -1622722.9     -5834.4129      3183.2995     -2651.1135    
    263900   1694.5347     -233525.34     -5743.1641      3092.7855     -2650.3785    
    264000   1563.8717      867701.79     -5503.7314      2854.3055     -2649.4259    
    264100   1438.5863      1568956.8     -5274.3972      2625.6405     -2648.7568    
    264200   1383.3567      1830321.9     -5173.3453      2524.8381     -2648.5072    
    264300   1423.0866      1644593.5     -5246.0354      2597.3512     -2648.6843    
    264400   1540.0577      1016413.5     -5460.1269      2810.8413     -2649.2856    
    264500   1675.721      -22457.007     -5708.6602      3058.4476     -2650.2126    
    264600   1744.7777     -1375024.6     -5835.5271      3184.4867     -2651.0404    
    264700   1680.5337     -2840702.1     -5718.155       3067.2315     -2650.9235    
    264800   1511.298      -4089737.6     -5407.7183      2758.3505     -2649.3678    
    264900   1387.6852     -4714884.2     -5180.5977      2532.7381     -2647.8596    
    265000   1441.8496     -4456629.3     -5280.1484      2631.5966     -2648.5518    
    265100   1614.1074     -3427172.1     -5596.3965      2945.9933     -2650.4032    
    265200   1734.9235     -2006721.5     -5817.6621      3166.5012     -2651.1609    
    265300   1718.6236     -573750.68     -5787.3733      3136.7514     -2650.622     
    265400   1600.6971      616933.47     -5571.1759      2921.5176     -2649.6583    
    265500   1466.3895      1428212.1     -5325.2775      2676.3856     -2648.8918    
    265600   1388.8398      1805339.5     -5183.3764      2534.8454     -2648.5309    
    265700   1403.862       1735856.2     -5210.8604      2562.2633     -2648.5971    
    265800   1504.8217      1221339.8     -5395.6204      2746.5301     -2649.0903    
    265900   1643.2284      283269.85     -5649.0996      2999.1437     -2649.9559    
    266000   1737.9667     -1002232       -5822.9323      3172.0555     -2650.8768    
    266100   1710.8789     -2464859.9     -5773.7112      3122.6162     -2651.095     
    266200   1558.478      -3808717.5     -5494.3324      2844.4611     -2649.8713    
    266300   1405.4447     -4632452.1     -5213.2436      2565.152      -2648.0917    
    266400   1410.3352     -4609386.1     -5222.2327      2574.0779     -2648.1547    
    266500   1567.7302     -3749627.7     -5511.3125      2861.3478     -2649.9647    
    266600   1715.7417     -2390609.7     -5782.6073      3131.4915     -2651.1157    
    266700   1735.6022     -930978.98     -5818.5789      3167.7399     -2650.839     
    266800   1636.5079      340082.04     -5636.784       2986.8777     -2649.9063    
    266900   1498.2383      1257905.8     -5383.5698      2734.5146     -2649.0553    
    267000   1400.8048      1750123.2     -5205.2668      2556.6834     -2648.5835    
    267100   1390.6701      1796955.8     -5186.7249      2538.186      -2648.5389    
    267200   1472.3064      1397349.6     -5336.1063      2687.1849     -2648.9215    
    267300   1607.8         565013.85     -5584.187       2934.4814     -2649.7056    
    267400   1722.5316     -642091.75     -5794.551       3143.8842     -2650.6668    
    267500   1731.963      -2081670.4     -5812.2577      3161.0978     -2651.1599    
    267600   1605.3062     -3492268.2     -5580.2538      2929.9298     -2650.324     
    267700   1434.9403     -4490759.7     -5267.4522      2618.986      -2648.4661    
    267800   1390.135      -4703633.6     -5185.1013      2537.2094     -2647.8919    
    267900   1520.3523     -4038145.6     -5424.3438      2774.8759     -2649.4678    
    268000   1687.1151     -2768392.6     -5730.2091      3079.2436     -2650.9655    
    268100   1744.1758     -1301624.9     -5834.4013      3183.3882     -2651.013     
    268200   1669.7006      38865.033     -5697.622       3047.4594     -2650.1625    
    268300   1533.041       1058556       -5447.2803      2798.0347     -2649.2456    
    268400   1418.8947      1664727.1     -5238.3653      2589.7003     -2648.665     
    268500   1383.9059      1827828.5     -5174.35        2525.8404     -2648.5096    
    268600   1443.6383      1543882.5     -5283.6419      2634.8611     -2648.7808    
    268700   1571.0498      820977.87     -5516.8764      2867.4067     -2649.4696    
    268800   1699.7149     -298300.23     -5752.6674      3102.2401     -2650.4273    
    268900   1743.1208     -1697254.1     -5832.5918      3181.4626     -2651.1292    
    269000   1648.6126     -3148072.8     -5659.6631      3008.9707     -2650.6924    
    269100   1473.6606     -4294339       -5338.5925      2689.6564     -2648.936     
    269200   1383.0058     -4736270.4     -5171.9951      2524.1975     -2647.7976    
    269300   1475.404      -4285182.1     -5341.795       2692.8384     -2648.9566    
    269400   1650.2757     -3133450.4     -5662.7115      3012.0061     -2650.7054    
    269500   1743.3646     -1681517.3     -5833.0336      3181.9075     -2651.1262    
    269600   1698.6404     -284573.93     -5750.6962      3100.2791     -2650.417     
    269700   1569.5346      830920.25     -5514.1015      2864.6411     -2649.4603    
    269800   1442.5572      1549266.1     -5281.6636      2632.888      -2648.7756    
    269900   1383.7691      1828450       -5174.0996      2525.5906     -2648.509     
    270000   1419.7615      1660574.9     -5239.9513      2591.2823     -2648.669     
    270100   1534.5161      1049755.4     -5449.981       2800.727      -2649.254     
    270200   1670.9844      25999.132     -5699.9757      3049.8026     -2650.1731    
    270300   1744.3327     -1317079.9     -5834.6936      3183.6745     -2651.019     
    270400   1685.7525     -2783687.7     -5727.7136      3076.7566     -2650.957     
    270500   1518.4338     -4049161.6     -5420.8212      2771.3744     -2649.4468    
    270600   1389.5764     -4706202.3     -5184.0743      2536.1898     -2647.8845    
    270700   1436.3693     -4483731.9     -5270.0779      2621.594      -2648.4839    
    270800   1607.1747     -3478622.1     -5583.6812      2933.3402     -2650.341     
    270900   1732.619      -2065862.6     -5813.4556      3162.2953     -2651.1604    
    271000   1721.7303     -627622.96     -5793.079       3142.4216     -2650.6574    
    271100   1606.3055      576047.9      -5581.4492      2931.7536     -2649.6955    
    271200   1471.0458      1403953.1     -5333.7992      2684.8841     -2648.9151    
    271300   1390.2636      1798819.7     -5185.9812      2537.4441     -2648.5371    
    271400   1401.4304      1747208.9     -5206.4115      2557.8252     -2648.5863    
    271500   1499.618       1250284       -5386.0952      2737.0326     -2649.0626    
    271600   1637.9342      328174.33     -5639.3977      2989.481      -2649.9168    
    271700   1736.1278     -945967.9      -5819.5465      3168.6994     -2650.8471    
    271800   1714.7457     -2406293.1     -5780.7854      3129.6737     -2651.1117    
    271900   1565.7809     -3762201.5     -5507.7353      2857.7901     -2649.9452    
    272000   1409.2671     -4614437.9     -5220.2694      2572.1284     -2648.141     
    272100   1406.4396     -4627773       -5215.0723      2566.9677     -2648.1045    
    272200   1560.4317     -3796362.8     -5497.9182      2848.027      -2649.8912    
    272300   1711.9344     -2449218.6     -5775.6422      3124.5426     -2651.0997    
    272400   1737.4949     -987160.45     -5822.0635      3171.1945     -2650.869     
    272500   1641.8196      295330.4      -5646.5178      2996.5724     -2649.9454    
    272600   1503.424       1229144.7     -5393.062       2743.9792     -2649.0828    
    272700   1403.1979      1738961       -5209.6453      2561.0512     -2648.5941    
    272800   1389.2054      1803666.5     -5184.0453      2535.5128     -2648.5325    
    272900   1467.6251      1421795.1     -5327.5387      2678.6407     -2648.898     
    273000   1602.199       606063.34     -5573.927       2924.2588     -2649.6682    
    273100   1719.4708     -588113.9      -5788.9292      3138.2977     -2650.6315    
    273200   1734.3306     -2022533.2     -5816.5801      3165.4191     -2651.161     
    273300   1612.2631     -3440988.5     -5593.0141      2942.6273     -2650.3868    
    273400   1440.364      -4464000.1     -5277.4184      2628.885      -2648.5335    
    273500   1388.16       -4712706.6     -5181.4705      2533.6047     -2647.8658    
    273600   1513.199      -4078988.3     -5411.2091      2761.8201     -2649.389     
    273700   1681.9475     -2825491.4     -5720.7447      3069.812      -2650.9327    
    273800   1744.6807     -1359513.6     -5835.3446      3184.3097     -2651.0348    
    273900   1674.465      -9452.0464     -5706.3574      3056.1553     -2650.202     
    274000   1538.5727      1025392.3     -5457.408       2808.1309     -2649.2771    
    274100   1422.185       1648935.4     -5244.3856      2595.7055     -2648.6801    
    274200   1383.4516      1829891.5     -5173.5188      2525.0112     -2648.5076    
    274300   1439.6365      1563761.8     -5276.319       2627.5572     -2648.7617    
    274400   1565.3846      857931.96     -5506.5019      2857.0669     -2649.435     
    274500   1695.6456     -247126.57     -5745.2019      3094.813      -2650.3888    
    274600   1743.9463     -1638429.5     -5834.0864      3182.9693     -2651.117     
    274700   1654.7785     -3093206.3     -5670.9644      3020.2243     -2650.7401    
    274800   1480.2325     -4259668.3     -5350.6644      2701.6511     -2649.0133    
    274900   1383.1251     -4735726.5     -5172.2145      2524.4154     -2647.7992    
    275000   1468.936      -4319010.1     -5329.9134      2681.0334     -2648.8801    
    275100   1644.0014     -3187970.8     -5651.2103      3000.5545     -2650.6559    
    275200   1742.3662     -1740418       -5831.2224      3180.0854     -2651.137     
    275300   1702.6078     -336086.57     -5757.9754      3107.5201     -2650.4552    
    275400   1575.2042      793494.89     -5524.4844      2874.9891     -2649.4953    
    275500   1446.6424      1528870.3     -5289.1393      2640.3441     -2648.7952    
    275600   1384.3384      1825863.7     -5175.1412      2526.6297     -2648.5115    
    275700   1416.5677      1675846.3     -5234.1075      2585.4531     -2648.6544    
    275800   1529.0134      1082429.7     -5439.9066      2790.6837     -2649.2229    
    275900   1666.1457      73931.928     -5691.1049      3040.9713     -2650.1336    
    276000   1743.6646     -1259350.4     -5833.4512      3182.455      -2650.9962    
    276100   1690.7775     -2726367       -5736.9159      3085.928      -2650.9879    
    276200   1525.6303     -4007597.8     -5434.0345      2784.5091     -2649.5254    
    276300   1391.7796     -4696059.7     -5188.1245      2540.211      -2647.9135    
    276400   1431.1051     -4509544.5     -5260.4044      2611.9862     -2648.4182    
    276500   1600.155      -3529424.7     -5570.8049      2920.5281     -2650.2768    
    276600   1730.0787     -2124981.7     -5808.8163      3157.6587     -2651.1576    
    276700   1724.6636     -681885.66     -5798.4675      3147.7753     -2650.6922    
    276800   1611.8843      534551.27     -5591.6689      2941.9358     -2649.7331    
    276900   1475.7944      1378997.3     -5342.49        2693.5509     -2648.9391    
    277000   1391.8398      1791586       -5188.865       2540.321      -2648.544     
    277100   1399.1434      1757848.9     -5202.2272      2553.651      -2648.5761    
    277200   1494.4832      1278542.5     -5376.6964      2727.6609     -2649.0355    
    277300   1632.5766      372504.5      -5629.5804      2979.7026     -2649.8778    
    277400   1734.0888     -890018.03     -5815.7942      3164.9778     -2650.8164    
    277500   1718.3889     -2347577.1     -5787.449       3136.3232     -2651.1259    
    277600   1573.0627     -3714876.3     -5521.0982      2871.0806     -2650.0177    
    277700   1413.3606     -4595034.8     -5227.7933      2579.5997     -2648.1935    
    277800   1402.8209     -4644760.7     -5208.4207      2560.363      -2648.0577    
    277900   1553.1211     -3842268.3     -5484.5003      2834.6839     -2649.8164    
    278000   1707.906      -2507661.5     -5768.2713      3117.1902     -2651.0811    
    278100   1739.1845     -1043645.7     -5825.1761      3174.2782     -2650.8979    
    278200   1647.0637      250009.66     -5656.1282      3006.1436     -2649.9846    
    278300   1508.6754      1199699.7     -5402.6749      2753.5639     -2649.111     
    278400   1405.7343      1727086.3     -5214.286       2565.6806     -2648.6055    
    278500   1387.8939      1809663.2     -5181.646       2533.1191     -2648.5268    
    278600   1463.0387      1445542.4     -5319.145       2670.2698     -2648.8752    
    278700   1596.5727      646497.64     -5563.6211      2913.9899     -2649.6312    
    278800   1716.2403     -534535.38     -5782.9971      3132.4015     -2650.5956    
    278900   1736.4615     -1963389       -5820.4683      3169.3084     -2651.1599    
    279000   1619.1253     -3389081.8     -5605.5993      2955.1518     -2650.4474    
    279100   1445.9959     -4435965.1     -5287.767       2639.1641     -2648.6029    
    279200   1386.5        -4720313.7     -5178.4188      2530.5749     -2647.8439    
    279300   1506.1159     -4118823.8     -5398.2022      2748.8923     -2649.3099    
    279400   1676.5906     -2882265.5     -5710.9321      3060.0348     -2650.8973    
    279500   1744.9604     -1417605.6     -5835.8754      3184.8202     -2651.0551    
    279600   1679.1231     -58286.054     -5714.8984      3064.6569     -2650.2415    
    279700   1544.1397      991563.39     -5467.6007      2818.2915     -2649.3091    
    279800   1425.6048      1632434.2     -5250.6431      2601.9472     -2648.6959    
    279900   1383.1544      1831239.9     -5172.9752      2524.4688     -2648.5064    
    280000   1435.7513      1582935.2     -5269.2095      2620.4661     -2648.7433    
    280100   1559.7301      894239.06     -5496.1475      2846.7465     -2649.401     
    280200   1691.4421     -196424.48     -5737.4911      3087.141      -2650.3501    
    280300   1744.5372     -1579724.7     -5835.1507      3184.0477     -2651.103     
    280400   1660.7892     -3037890.5     -5681.98        3031.1947     -2650.7853    
    280500   1486.9354     -4223868.6     -5362.9762      2713.885      -2649.0912    
    280600   1383.5702     -4733698.2     -5173.0326      2525.2276     -2647.8051    
    280700   1462.6207     -4351667.5     -5318.3115      2669.5068     -2648.8046    
    280800   1637.5864     -3241995.5     -5639.4501      2988.8462     -2650.6039    
    280900   1741.1314     -1799406.5     -5828.9774      3177.8315     -2651.1459    
    281000   1706.4311     -388052.76     -5764.9914      3114.4983     -2650.4931    
    281100   1580.8752      755430.18     -5534.8703      2885.3396     -2649.5307    
    281200   1450.8389      1507770.2     -5296.8188      2648.0033     -2648.8155    
    281300   1385.0643      1822563       -5176.4692      2527.9546     -2648.5146    
    281400   1413.5076      1690407.2     -5228.5084      2579.8679     -2648.6405    
    281500   1523.5544      1114433.1     -5429.9127      2780.7203     -2649.1924    
    281600   1661.2109      121332.85     -5682.0586      3031.9645     -2650.094     
    281700   1742.7761     -1201852.3     -5831.8054      3180.8335     -2650.9719    
    281800   1695.603      -2668765.2     -5745.7516      3094.7354     -2651.0162    
    281900   1532.8746     -3965073.2     -5447.3347      2797.7311     -2649.6035    
    282000   1394.2902     -4684464.3     -5192.7398      2544.7933     -2647.9465    
    282100   1426.0678     -4534048       -5251.1472      2602.7923     -2648.355     
    282200   1593.0591     -3579551.8     -5557.7875      2907.5769     -2650.2106    
    282300   1727.3036     -2184057.5     -5803.7463      3152.5938     -2651.1525    
    282400   1727.4185     -736526.33     -5803.5297      3152.8035     -2650.7263    
    282500   1617.4277      492449.41     -5601.8246      2952.0535     -2649.7711    
    282600   1480.6313      1353346.2     -5351.3427      2702.379      -2648.9637    
    282700   1393.5674      1783638.5     -5192.0257      2543.4741     -2648.5516    
    282800   1397.0025      1767775.9     -5198.3103      2549.7436     -2648.5667    
    282900   1489.4217      1306113.1     -5367.4318      2718.4228     -2649.009     
    283000   1627.1617      416253.44     -5619.6585      2969.8194     -2649.8391    
    283100   1731.8538     -834396.32     -5811.6834      3160.8987     -2650.7847    
    283200   1721.8056     -2288734.9     -5793.6967      3142.5591     -2651.1376    
    283300   1580.3115     -3666770       -5534.3993      2884.3106     -2650.0887    
    283400   1417.7169     -4574257.7     -5235.7998      2587.5506     -2648.2492    
    283500   1399.4866     -4660335.9     -5202.2918      2554.2775     -2648.0144    
    283600   1545.8106     -3887316.5     -5471.0817      2821.3412     -2649.7405    
    283700   1703.6603     -2565914.9     -5760.5012      3109.4412     -2651.06      
    283800   1740.6668     -1100420.2     -5827.9094      3176.9837     -2650.9256    
    283900   1652.2341      204127.14     -5665.6044      3015.5804     -2650.024     
    284000   1513.9882      1169573.1     -5412.4002      2763.2605     -2649.1398    
    284100   1408.4122      1714499.5     -5219.1857      2570.5682     -2648.6175    
    284200   1386.7366      1814945.8     -5179.5286      2531.0067     -2648.5218    
    284300   1458.5508      1468590.3     -5310.9318      2662.0787     -2648.8531    
    284400   1590.9268      686311.32     -5553.2798      2903.6852     -2649.5946    
    284500   1712.8453     -481368.13     -5776.7642      3126.2051     -2650.5591    
    284600   1738.3552     -1904258.5     -5823.9214      3172.7647     -2651.1567    
    284700   1625.8825     -3336575.9     -5617.9906      2967.4848     -2650.5059    
    284800   1451.825      -4406675.4     -5298.4773      2649.8031     -2648.6741    
    284900   1385.1585     -4726448.8     -5175.9526      2528.1265     -2647.8261    
    285000   1499.1157     -4157625.9     -5385.3467      2736.1158     -2649.2309    
    285100   1671.0508     -2938689.4     -5700.7829      3049.9237     -2650.8592    
[...]
    684000   1590.5061     -3597301.4     -5553.1039      2902.9174     -2650.1865    
    684100   1424.3241     -4542486       -5247.9427      2599.6098     -2648.333     
    684200   1395.2613     -4679968.6     -5194.5248      2546.5657     -2647.9592    
    684300   1535.4734     -3949644.1     -5452.1056      2802.4743     -2649.6313    
    684400   1697.2786     -2648111.1     -5748.8192      3097.7935     -2651.0257    
    684500   1742.4057     -1181357.8     -5831.1203      3180.1574     -2650.9629    
    684600   1659.4247      138146.44     -5678.7843      3028.7044     -2650.0799    
    684700   1521.6146      1125709.9     -5426.3615      2777.1798     -2649.1816    
    684800   1412.4465      1695439.8     -5226.567       2577.9314     -2648.6357    
    684900   1385.3617      1821209.8     -5177.0132      2528.4973     -2648.5159    
    685000   1452.3653      1500057       -5299.6122      2650.7893     -2648.8229    
    685100   1582.9017      741669.11     -5538.5817      2889.0382     -2649.5434    
    685200   1707.7619     -406736.9      -5767.4336      3116.9271     -2650.5065    
    685300   1740.6324     -1820510.5     -5828.0694      3176.9209     -2651.1486    
    685400   1635.2609     -3261182       -5635.1865      2984.6017     -2650.5848    
    685500   1460.4025     -4363053       -5314.2363      2665.4583     -2648.778     
    685600   1383.8081     -4732613.3     -5173.47        2525.6618     -2647.8082    
    685700   1489.3609     -4210802.1     -5367.4311      2718.3118     -2649.1192    
    685800   1662.8986     -3018013.1     -5685.8456      3035.0448     -2650.8008    
    685900   1744.6917     -1558772.3     -5835.4272      3184.3297     -2651.0976    
    686000   1689.908      -178416.53     -5734.6773      3084.3411     -2650.3362    
    686100   1557.7125      907059.85     -5492.4529      2843.0639     -2649.3889    
    686200   1434.3913      1589617.6     -5266.7209      2617.9839     -2648.7369    
    686300   1383.0864      1831548.6     -5172.8507      2524.3446     -2648.5061    
    686400   1426.8582      1626363.5     -5252.9366      2604.2348     -2648.7017    
    686500   1546.1373      979309.97     -5471.2583      2821.9375     -2649.3207    
    686600   1680.7612     -75866.268     -5717.9023      3067.6468     -2650.2555    
    686700   1745.0053     -1438417.5     -5835.9641      3184.9021     -2651.062     
    686800   1674.631      -2902476.7     -5707.3421      3056.4582     -2650.884     
    686900   1503.6033     -4132814.3     -5393.5881      2744.3065     -2649.2816    
    687000   1385.9837     -4722676.1     -5177.4697      2529.6326     -2647.8371    
    687100   1448.0575     -4425638       -5291.5551      2642.9269     -2648.6281    
    687200   1621.5534     -3370380.1     -5610.052       2959.5834     -2650.4686    
    687300   1737.1657     -1942249.3     -5821.7527      3170.5937     -2651.159     
    687400   1715.0453     -515482.05     -5780.8031      3130.2205     -2650.5826    
    687500   1594.5565      660801.23     -5559.928       2910.3099     -2649.6181    
    687600   1461.4229      1453861.7     -5316.188       2667.3208     -2648.8672    
    687700   1387.4625      1811633.6     -5180.8566      2532.3316     -2648.525     
    687800   1406.6754      1722668.7     -5216.0079      2567.3982     -2648.6097    
    687900   1510.5678      1189008.6     -5406.1388      2757.0177     -2649.1212    
    688000   1648.9207      233672.34     -5659.5316      3009.5329     -2649.9987    
    688100   1739.7384     -1063908.2     -5826.1971      3175.2891     -2650.9079    
    688200   1706.4131     -2528508.1     -5765.5392      3114.4653     -2651.0739    
    688300   1550.5071     -3858471.4     -5479.7025      2829.9131     -2649.7894    
    688400   1401.5959     -4650491.2     -5206.1691      2558.1274     -2648.0418    
    688500   1414.8881     -4587764.7     -5230.6007      2582.3877     -2648.2131    
    688600   1575.6583     -3697768.2     -5525.8612      2875.8179     -2650.0432    
    688700   1719.6365     -2326556.3     -5789.7304      3138.6001     -2651.1304    
    688800   1733.3122     -870096.75     -5814.3655      3163.5603     -2650.8052    
    688900   1630.6473      388210.36     -5626.0451      2976.1811     -2649.864     
    689000   1492.6653      1288477.1     -5373.3688      2724.3429     -2649.0259    
    689100   1398.3612      1761479.4     -5200.7962      2552.2235     -2648.5727    
    689200   1392.4401      1788827       -5189.9632      2541.4165     -2648.5466    
    689300   1477.5134      1369907.7     -5345.6363      2696.6885     -2648.9478    
    689400   1613.8702      519570.48     -5595.3071      2945.5605     -2649.7467    
    689500   1725.6691     -701375.09     -5800.315       3149.6105     -2650.7045    
    689600   1729.1135     -2146105.3     -5807.0532      3155.8972     -2651.156     
    689700   1597.6266     -3547422.4     -5566.1668      2915.9135     -2650.2533    
    689800   1429.2779     -4518455       -5257.0465      2608.6512     -2648.3953    
    689900   1392.642      -4692081.1     -5189.7099      2541.7851     -2647.9248    
    690000   1528.2151     -3992505.6     -5438.7801      2789.2267     -2649.5534    
    690100   1692.5256     -2705807.3     -5740.117       3089.1187     -2650.9983    
    690200   1743.3721     -1238769.4     -5832.9089      3181.9213     -2650.9876    
    690300   1664.3924      90937.665     -5687.8907      3037.7713     -2650.1194    
    690400   1527.0567      1093947       -5436.3244      2787.1125     -2649.2119    
    690500   1415.4583      1681133       -5232.0777      2583.4284     -2648.6493    
    690600   1384.5799      1824765.8     -5175.583       2527.0705     -2648.5125    
    690700   1448.1299      1521408.5     -5291.8614      2643.059      -2648.8024    
    690800   1577.2315      779961.23     -5528.1972      2878.6893     -2649.5079    
    690900   1703.9913     -354611.19     -5760.5141      3110.0453     -2650.4688    
    691000   1741.952      -1761495.3     -5830.4698      3179.3294     -2651.1404    
    691100   1641.7239     -3207341.2     -5647.0354      2996.3978     -2650.6376    
    691200   1466.6603     -4330819.7     -5325.7329      2676.8799     -2648.853     
    691300   1383.2469     -4735171.9     -5172.4383      2524.6375     -2647.8008    
    691400   1482.6142     -4246999.5     -5355.0391      2705.998      -2649.041     
    691500   1656.9453     -3073483       -5674.9357      3024.1792     -2650.7566    
    691600   1744.1844     -1617429.8     -5834.5161      3183.4039     -2651.1122    
    691700   1694.1581     -228947.61     -5742.4731      3092.0981     -2650.375     
    691800   1563.3618      870985.04     -5502.7978      2853.3749     -2649.4228    
    691900   1438.2341      1570696.8     -5273.7528      2624.9977     -2648.7551    
    692000   1383.3273      1830455.5     -5173.2914      2524.7843     -2648.5071    
    692100   1423.3927      1643118.3     -5246.5955      2597.9097     -2648.6857    
    692200   1540.5589      1013375.8     -5461.0446      2811.7561     -2649.2885    
    692300   1676.1427     -26849.643     -5709.4334      3059.2172     -2650.2162    
    692400   1744.8067     -1380257.1     -5835.5819      3184.5397     -2651.0423    
    692500   1680.054      -2845824.8     -5717.2764      3066.3561     -2650.9203    
    692600   1510.6583     -4093345.2     -5406.5436      2757.1829     -2649.3607    
    692700   1387.5302     -4715594.6     -5180.3128      2532.4553     -2647.8575    
    692800   1442.3538     -4454123.9     -5281.0748      2632.5168     -2648.558     
    692900   1614.7276     -3422504.2     -5597.5339      2947.1252     -2650.4087    
    693000   1735.1195     -2001390.9     -5818.0199      3166.859      -2651.1609    
    693100   1718.3352     -568914.91     -5786.8438      3136.2251     -2650.6187    
    693200   1600.1904      620588.17     -5570.2477      2920.5928     -2649.6549    
    693300   1465.9745      1430364.2     -5324.5179      2675.6282     -2648.8898    
    693400   1388.719       1805892.1     -5183.1553      2534.6249     -2648.5304    
    693500   1404.0882      1734798       -5211.2743      2562.6762     -2648.5981    
    693600   1505.2939      1218697.5     -5396.4848      2747.392      -2649.0928    
    693700   1643.7023      279194.75     -5649.968       3000.0086     -2649.9594    
    693800   1738.1224     -1007317.9     -5823.2192      3172.3398     -2650.8794    
    693900   1710.5196     -2470130.3     -5773.0537      3121.9603     -2651.0933    
    694000   1557.8192     -3812869.2     -5493.1233      2843.2587     -2649.8646    
    694100   1405.1138     -4634007       -5212.6354      2564.548      -2648.0874    
    694200   1410.6997     -4607660.7     -5222.9025      2574.7431     -2648.1594    
    694300   1568.387      -3745375.8     -5512.5178      2862.5465     -2649.9713    
    694400   1716.0739     -2385320       -5783.2148      3132.0978     -2651.117     
    694500   1735.4217     -925930.91     -5818.2469      3167.4106     -2650.8363    
    694600   1636.026       344087.18     -5635.9011      2985.9982     -2649.9028    
    694700   1497.7743      1260464.3     -5382.7205      2733.6677     -2649.0528    
    694800   1400.5962      1751094.2     -5204.8852      2556.3027     -2648.5826    
    694900   1390.8096      1796315.9     -5186.9801      2538.4406     -2648.5395    
    695000   1472.7329      1395112.2     -5336.8868      2687.9632     -2648.9236    
    695100   1608.3034      561284.14     -5585.1091      2935.4001     -2649.7089    
    695200   1722.799      -646975.83     -5795.0421      3144.3722     -2650.67      
    695300   1731.738      -2086999.3     -5811.8468      3160.6872     -2651.1597    
    695400   1604.6749     -3496858.1     -5579.0958      2928.7775     -2650.3183    
    695500   1434.4621     -4493108.2     -5266.5734      2618.1132     -2648.4602    
    695600   1390.3283     -4702744.1     -5185.4567      2537.5623     -2647.8944    
    695700   1521          -4034416       -5425.533       2776.0581     -2649.4749    
    695800   1687.5713     -2763231.3     -5731.0446      3080.0763     -2650.9684    
    695900   1744.1194     -1296418       -5834.2961      3183.2851     -2651.011     
    696000   1669.2661      43194.03      -5696.8255      3046.6665     -2650.159     
    696100   1532.5443      1061512.2     -5446.371       2797.1283     -2649.2428    
    696200   1418.6046      1666115.5     -5237.8345      2589.1708     -2648.6637    
    696300   1383.9546      1827607.5     -5174.439       2525.9292     -2648.5098    
    696400   1444.0046      1542056.2     -5284.3122      2635.5296     -2648.7826    
    696500   1571.5608      817615.66     -5517.812       2868.3393     -2649.4728    
    696600   1700.0748     -302935.2      -5753.3278      3102.8971     -2650.4307    
    696700   1743.0348     -1702561.1     -5832.4359      3181.3056     -2651.1303    
    696800   1648.0496     -3152994.8     -5658.631       3007.943      -2650.688     
    696900   1473.0752     -4297407.4     -5337.517       2688.5879     -2648.9291    
    697000   1383.011      -4736246.5     -5172.0047      2524.207      -2647.7977    
    697100   1475.994      -4282076.6     -5342.8788      2693.9152     -2648.9635    
    697200   1650.834      -3128513.2     -5663.7348      3013.0251     -2650.7098    
    697300   1743.4429     -1676213.7     -5833.1756      3182.0505     -2651.1251    
    697400   1698.276      -279953.87     -5750.0275      3099.6139     -2650.4136    
    697500   1569.0238      834261.74     -5513.1662      2863.7089     -2649.4572    
    697600   1442.1946      1551069.7     -5281           2632.2261     -2648.7739    
    697700   1383.7255      1828648       -5174.0199      2525.5111     -2648.5088    
    697800   1420.0558      1659163.6     -5240.4898      2591.8195     -2648.6703    
    697900   1535.014       1046777.7     -5450.8926      2801.6358     -2649.2568    
    698000   1671.4156      21653.237     -5700.7662      3050.5895     -2650.1767    
    698100   1744.382      -1322293.8     -5834.7855      3183.7645     -2651.021     
    698200   1685.29       -2788839.1     -5726.8666      3075.9125     -2650.9541    
    698300   1517.788      -4052859.5     -5419.6354      2770.1957     -2649.4397    
    698400   1389.3931     -4707044.8     -5183.7374      2535.8552     -2647.8821    
    698500   1436.8545     -4481341.8     -5270.9696      2622.4796     -2648.49      
    698600   1607.8033     -3474011.2     -5584.8341      2934.4874     -2650.3467    
    698700   1732.8364     -2060533       -5813.8525      3162.692      -2651.1605    
    698800   1721.4573     -622751.4      -5792.5776      3141.9234     -2650.6543    
    698900   1605.8011      579757.95     -5580.5253      2930.8331     -2649.6922    
    699000   1470.6223      1406168.1     -5333.0242      2684.1112     -2648.913     
    699100   1390.129       1799436.6     -5185.735       2537.1984     -2648.5366    
    699200   1401.6437      1746214.9     -5206.8017      2558.2145     -2648.5872    
    699300   1500.0842      1247703.4     -5386.9486      2737.8836     -2649.065     
    699400   1638.4141      324150.65     -5640.277       2990.3567     -2649.9203    
    699500   1736.3018     -951026.17     -5819.8668      3169.0169     -2650.8498    
    699600   1714.4063     -2411578       -5780.1645      3129.0542     -2651.1103    
    699700   1565.1234     -3766427.4     -5506.5286      2856.59       -2649.9386    
    699800   1408.9114     -4616118.7     -5219.6155      2571.4791     -2648.1364    
    699900   1406.7794     -4626173.1     -5215.697       2567.5881     -2648.1089    
    700000   1561.0902     -3792184.3     -5499.1267      2849.2288     -2649.8979    
    700100   1712.2866     -2443942.8     -5776.2867      3125.1855     -2651.1012    
    700200   1737.3326     -982084.29     -5821.7646      3170.8983     -2650.8663    
    700300   1641.3436      299387.19     -5645.6454      2995.7036     -2649.9419    
    700400   1502.9539      1231765       -5392.2014      2743.1212     -2649.0803    
    700500   1402.9763      1739996.2     -5209.2399      2560.6467     -2648.5931    
    700600   1389.3312      1803090.9     -5184.2754      2535.7423     -2648.5331    
    700700   1468.0432      1419620.5     -5328.3039      2679.4038     -2648.9001    
    700800   1602.705       602388.8      -5574.8537      2925.1822     -2649.6715    
    700900   1719.7537     -592962.59     -5789.4488      3138.814      -2650.6347    
    701000   1734.1269     -2027863.6     -5816.2083      3165.0473     -2651.161     
    701100   1611.6398     -3445636.4     -5591.8709      2941.4897     -2650.3812    
    701200   1439.8664     -4466464.4     -5276.5042      2627.9769     -2648.5273    
    701300   1388.3251     -4711948.9     -5181.7741      2533.9061     -2647.868     
    701400   1513.8411     -4075348.2     -5412.388       2762.9919     -2649.3961    
    701500   1682.4211     -2820358.1     -5721.6121      3070.6764     -2650.9358    
    701600   1744.6444     -1354287.7     -5835.2764      3184.2435     -2651.0329    
    701700   1674.0399     -5076.0276     -5705.5779      3055.3794     -2650.1985    
    701800   1538.0726      1028408.6     -5456.4924      2807.2182     -2649.2742    
    701900   1421.8831      1650387.8     -5243.8332      2595.1545     -2648.6787    
    702000   1383.4861      1829734.8     -5173.5819      2525.0741     -2648.5078    
    702100   1439.9924      1561999.1     -5276.9703      2628.2069     -2648.7634    
    702200   1565.8949      854627.85     -5507.4363      2857.9981     -2649.4381    
    702300   1696.0179     -251719.53     -5745.8849      3095.4926     -2650.3923    
    702400   1743.8816     -1643726.5     -5833.9694      3182.8511     -2651.1182    
    702500   1654.229      -3098170.1     -5669.9574      3019.2215     -2650.7359    
    702600   1479.6346     -4262839.8     -5349.5662      2700.5599     -2649.0063    
    702700   1383.101      -4735836.4     -5172.1702      2524.3713     -2647.7989    
    702800   1469.5129     -4316008.9     -5330.9732      2682.0862     -2648.8869    
    702900   1644.5728     -3183077       -5652.2578      3001.5973     -2650.6605    
    703000   1742.4659     -1735105.6     -5831.4034      3180.2673     -2651.1361    
    703100   1702.256      -331425.12     -5757.33        3106.8782     -2650.4518    
    703200   1574.6931      796894.22     -5523.5483      2874.0562     -2649.4921    
    703300   1446.2696      1530737.4     -5288.4571      2639.6637     -2648.7934    
    703400   1384.2807      1826126.1     -5175.0356      2526.5243     -2648.5112    
    703500   1416.8501      1674499.1     -5234.6242      2585.9685     -2648.6557    
    703600   1529.5076      1079512.3     -5440.8114      2791.5858     -2649.2257    
    703700   1666.5859      69633.553     -5691.9117      3041.7746     -2650.1371    
    703800   1743.7339     -1264544.2     -5833.5798      3182.5815     -2650.9983    
    703900   1690.3327     -2731545.1     -5736.1014      3085.1162     -2650.9852    
    704000   1524.9795     -4011383.6     -5432.8397      2783.3214     -2649.5183    
    704100   1391.5683     -4697033.5     -5187.7362      2539.8255     -2647.9107    
    704200   1431.5704     -4507271.5     -5261.2595      2612.8354     -2648.4241    
    704300   1600.791      -3524873.2     -5571.9715      2921.6889     -2650.2827    
    704400   1730.3173     -2119654.9     -5809.2521      3158.0942     -2651.1579    
    704500   1724.4064     -676979.42     -5797.9951      3147.306      -2650.6891    
    704600   1611.3828      538316.15     -5590.7503      2941.0206     -2649.7297    
    704700   1475.3627      1381275       -5341.6999      2692.763      -2648.9369    
    704800   1391.6915      1792267.2     -5188.5937      2540.0503     -2648.5434    
    704900   1399.3435      1756919.2     -5202.5934      2554.0164     -2648.577     
    705000   1494.9431      1276023.8     -5377.5381      2728.5002     -2649.0379    
    705001   1534.3586      1050696.6     -5449.6926      2800.4395     -2649.2531    
Loop time of 1404.32 on 1 procs for 500000 steps with 14121 atoms

Performance: 30.762 ns/day, 0.780 hours/ns, 356.044 timesteps/s, 5.028 Matom-step/s
74.2% CPU use with 1 MPI tasks x 1 OpenMP threads

MPI task timing breakdown:
Section |  min time  |  avg time  |  max time  |%varavg| %total
---------------------------------------------------------------
Pair    | 417.12     | 417.12     | 417.12     |   0.0 | 29.70
Neigh   | 823.2      | 823.2      | 823.2      |   0.0 | 58.62
Comm    | 23.442     | 23.442     | 23.442     |   0.0 |  1.67
Output  | 88.175     | 88.175     | 88.175     |   0.0 |  6.28
Modify  | 37.455     | 37.455     | 37.455     |   0.0 |  2.67
Other   |            | 14.93      |            |       |  1.06

Nlocal:          14121 ave       14121 max       14121 min
Histogram: 1 0 0 0 0 0 0 0 0 0
Nghost:              0 ave           0 max           0 min
Histogram: 1 0 0 0 0 0 0 0 0 0
Neighs:              0 ave           0 max           0 min
Histogram: 1 0 0 0 0 0 0 0 0 0
FullNghs:       156684 ave      156684 max      156684 min
Histogram: 1 0 0 0 0 0 0 0 0 0

Total # of neighbors = 156684
Ave neighs/atom = 11.095815
Neighbor list builds = 27777
Dangerous builds = 0
Total wall time: 0:27:00
