# BaTiO3 Perovskite Structure Data File
# Simple 2x2x2 supercell for piezoelectric simulation

40 atoms
3 atom types

0.0 8.0 xlo xhi
0.0 8.0 ylo yhi
0.0 8.0 zlo zhi

Masses

1 137.327
2 47.867
3 15.999

Atoms

1 1 2.0 0.0 0.0 0.0
2 1 2.0 4.0 0.0 0.0
3 1 2.0 0.0 4.0 0.0
4 1 2.0 4.0 4.0 0.0
5 1 2.0 0.0 0.0 4.0
6 1 2.0 4.0 0.0 4.0
7 1 2.0 0.0 4.0 4.0
8 1 2.0 4.0 4.0 4.0
9 2 4.0 2.0 2.0 2.0
10 2 4.0 6.0 2.0 2.0
11 2 4.0 2.0 6.0 2.0
12 2 4.0 6.0 6.0 2.0
13 2 4.0 2.0 2.0 6.0
14 2 4.0 6.0 2.0 6.0
15 2 4.0 2.0 6.0 6.0
16 2 4.0 6.0 6.0 6.0
17 3 -2.0 2.0 0.0 0.0
18 3 -2.0 6.0 0.0 0.0
19 3 -2.0 2.0 4.0 0.0
20 3 -2.0 6.0 4.0 0.0
21 3 -2.0 2.0 0.0 4.0
22 3 -2.0 6.0 0.0 4.0
23 3 -2.0 2.0 4.0 4.0
24 3 -2.0 6.0 4.0 4.0
25 3 -2.0 0.0 2.0 0.0
26 3 -2.0 4.0 2.0 0.0
27 3 -2.0 0.0 6.0 0.0
28 3 -2.0 4.0 6.0 0.0
29 3 -2.0 0.0 2.0 4.0
30 3 -2.0 4.0 2.0 4.0
31 3 -2.0 0.0 6.0 4.0
32 3 -2.0 4.0 6.0 4.0
33 3 -2.0 0.0 0.0 2.0
34 3 -2.0 4.0 0.0 2.0
35 3 -2.0 0.0 4.0 2.0
36 3 -2.0 4.0 4.0 2.0
37 3 -2.0 0.0 0.0 6.0
38 3 -2.0 4.0 0.0 6.0
39 3 -2.0 0.0 4.0 6.0
40 3 -2.0 4.0 4.0 6.0