LAMMPS (2 Apr 2025)
OMP_NUM_THREADS environment is not set. Defaulting to 1 thread. (src/comm.cpp:99)
  using 1 OpenMP thread(s) per MPI task
Loaded 1 plugins from C:\Users\Abhiraj\AppData\Local\LAMMPS 64-bit 2Apr2025 with Python\plugins
Reading data file ...
  orthogonal box = (0 0 0) to (8 8 8)
  1 by 1 by 1 MPI processor grid
  reading atoms ...
  40 atoms
  read_data CPU = 0.002 seconds
8 atoms in group top_atoms
20 atoms in group bottom_atoms
20 atoms in group mobile
Starting energy minimization...
PPPM initialization ...
  using 12-bit tables for long-range coulomb (src/kspace.cpp:342)
  G vector (1/distance) = 0.32333097
  grid = 9 9 9
  stencil order = 5
  estimated absolute RMS force accuracy = 0.00066387124
  estimated relative force accuracy = 4.6103306e-05
  using double precision FFTW3
  3d grid and FFT values/proc = 4096 729
Generated 0 of 3 mixed pair_coeff terms from geometric mixing rule
Neighbor list info ...
  update: every = 1 steps, delay = 0 steps, check = yes
  max neighbors/atom: 2000, page size: 100000
  master list distance cutoff = 12
  ghost atom cutoff = 12
  binsize = 6, bins = 2 2 2
  1 neighbor lists, perpetual/occasional/extra = 1 0 0
  (1) pair lj/cut/coul/long, perpetual
      attributes: half, newton on
      pair build: half/bin/atomonly/newton
      stencil: half/bin/3d
      bin: standard
Setting up cg style minimization ...
  Unit style    : metal
  Current step  : 0
Per MPI rank memory allocation (min/avg/max) = 4.947 | 4.947 | 4.947 Mbytes
   Step          Temp          E_pair         E_mol          TotEng         Press     
         0   300           -983.16892      0             -981.65657      2473720.9    
         1   300           -983.17918      0             -981.66684      2473598.2    
Loop time of 0.000869 on 1 procs for 1 steps with 40 atoms

0.0% CPU use with 1 MPI tasks x 1 OpenMP threads

Minimization stats:
  Stopping criterion = energy tolerance
  Energy initial, next-to-last, final = 
     -983.168917486641  -983.168917486641  -983.179183087247
  Force two-norm initial, final = 0.00037168117 0.0011845587
  Force max component initial, final = 6.8132748e-05 0.00023744525
  Final line search alpha, max atom move = 1 0.00023744525
  Iterations, force evaluations = 1 2

MPI task timing breakdown:
Section |  min time  |  avg time  |  max time  |%varavg| %total
---------------------------------------------------------------
Pair    | 0.000644   | 0.000644   | 0.000644   |   0.0 | 74.11
Kspace  | 0.000175   | 0.000175   | 0.000175   |   0.0 | 20.14
Neigh   | 0          | 0          | 0          |   0.0 |  0.00
Comm    | 3.1e-05    | 3.1e-05    | 3.1e-05    |   0.0 |  3.57
Output  | 0          | 0          | 0          |   0.0 |  0.00
Modify  | 0          | 0          | 0          |   0.0 |  0.00
Other   |            | 1.9e-05    |            |       |  2.19

Nlocal:             40 ave          40 max          40 min
Histogram: 1 0 0 0 0 0 0 0 0 0
Nghost:           3145 ave        3145 max        3145 min
Histogram: 1 0 0 0 0 0 0 0 0 0
Neighs:          11544 ave       11544 max       11544 min
Histogram: 1 0 0 0 0 0 0 0 0 0

Total # of neighbors = 11544
Ave neighs/atom = 288.6
Neighbor list builds = 0
Dangerous builds = 0
Starting equilibration...
PPPM initialization ...
  using 12-bit tables for long-range coulomb (src/kspace.cpp:342)
  G vector (1/distance) = 0.32333097
  grid = 9 9 9
  stencil order = 5
  estimated absolute RMS force accuracy = 0.00066387124
  estimated relative force accuracy = 4.6103306e-05
  using double precision FFTW3
  3d grid and FFT values/proc = 4096 729
Generated 0 of 3 mixed pair_coeff terms from geometric mixing rule
Setting up Verlet run ...
  Unit style    : metal
  Current step  : 1
  Time step     : 0.001
Per MPI rank memory allocation (min/avg/max) = 3.822 | 3.822 | 3.822 Mbytes
   Step          Temp          PotEng         KinEng         TotEng         Press          Volume    
         1   300           -983.17918      1.5123437     -981.66684      2473598.2      512          
       100   3684.9369     -1362.9123      18.576304     -1344.336      -173258.27      512          
       200   663.22011     -1378.3226      3.3433892     -1374.9793     -347433.76      512          
       300   246.67577     -1381.4055      1.2435285     -1380.1619     -310829.35      512          
       400   199.62287     -1382.3829      1.006328      -1381.3766     -313919.11      512          
       500   190.12292     -1382.732       0.95843731    -1381.7736     -279717.67      512          
       600   337.94155     -1383.2647      1.7036126     -1381.561      -219568.88      512          
       700   367.38102     -1383.2828      1.8520212     -1381.4308     -298435.46      512          
       800   239.19961     -1383.2413      1.2058401     -1382.0354     -253141.55      512          
       900   263.13012     -1383.5999      1.3264773     -1382.2735     -354399.54      512          
      1000   534.03454     -1385.9296      2.6921459     -1383.2374     -288093.12      512          
      1100   329.76054     -1388.6732      1.6623709     -1387.0109     -363010.99      512          
      1200   136.97469     -1388.9764      0.69050938    -1388.2859     -338172.2       512          
      1300   152.34509     -1389.2002      0.76799378    -1388.4323     -359207.72      512          
      1400   211.22095     -1388.8434      1.0647956     -1387.7786     -329066.37      512          
      1500   376.64876     -1388.1151      1.8987413     -1386.2163     -353980.98      512          
      1600   448.1525      -1387.3974      2.259202      -1385.1382     -346896.58      512          
      1700   355.33592     -1387.8609      1.7913001     -1386.0696     -365852.04      512          
      1800   217.98825     -1388.514       1.0989105     -1387.4151     -333320.91      512          
      1900   216.42922     -1389.0493      1.0910512     -1387.9582     -355712.57      512          
      2000   217.1984      -1388.8949      1.0949288     -1387.8        -305223.45      512          
      2100   293.19367     -1388.4292      1.478032      -1386.9512     -400815.02      512          
      2200   457.40293     -1388.155       2.3058348     -1385.8492     -309297.29      512          
      2300   363.89032     -1387.7881      1.8344241     -1385.9537     -363170.05      512          
      2400   278.33267     -1388.2595      1.4031155     -1386.8564     -373359.6       512          
      2500   277.6433      -1388.89        1.3996403     -1387.4904     -356436.39      512          
      2600   213.03118     -1388.6931      1.0739212     -1387.6192     -374888.79      512          
      2700   280.17548     -1388.6153      1.4124054     -1387.2029     -345514.02      512          
      2800   388.82573     -1388.3968      1.9601271     -1386.4367     -321728.47      512          
      2900   390.93131     -1388.0821      1.9707417     -1386.1114     -341232.81      512          
      3000   285.2326      -1388.0993      1.4378991     -1386.6614     -352679.41      512          
      3100   250.82507     -1388.5479      1.2644457     -1387.2834     -408741.35      512          
      3200   232.40019     -1388.6063      1.1715632     -1387.4347     -359650.42      512          
      3300   288.11758     -1388.6287      1.4524427     -1387.1762     -365037.12      512          
      3400   319.19133     -1388.3241      1.60909       -1386.715      -330256.06      512          
      3500   350.78901     -1388.1243      1.7683785     -1386.3559     -372956.2       512          
      3600   353.97059     -1388.3601      1.7844173     -1386.5756     -360292.77      512          
      3700   362.72844     -1388.864       1.8285669     -1387.0354     -358408.05      512          
      3800   278.99934     -1388.7116      1.4064763     -1387.3051     -333965.9       512          
      3900   296.99888     -1388.7683      1.4972146     -1387.2711     -336407.78      512          
      4000   317.29537     -1388.5212      1.5995322     -1386.9216     -353583.56      512          
      4100   288.03118     -1387.9595      1.4520071     -1386.5075     -329876.03      512          
      4200   355.79436     -1388.2195      1.7936112     -1386.4259     -361857.24      512          
      4300   356.92599     -1388.5959      1.7993159     -1386.7966     -324746.28      512          
      4400   227.44686     -1388.3614      1.1465927     -1387.2148     -319883.01      512          
      4500   279.52036     -1388.742       1.4091028     -1387.3329     -359471.87      512          
      4600   301.29921     -1388.6249      1.5188932     -1387.106      -373069.98      512          
      4700   342.12425     -1388.391       1.7246982     -1386.6663     -351322.88      512          
      4800   329.04167     -1388.0751      1.658747      -1386.4164     -352284.19      512          
      4900   285.27027     -1388.0768      1.438089      -1386.6387     -408889.79      512          
      5000   246.08615     -1388.2803      1.2405561     -1387.0398     -348157.14      512          
      5001   252.06659     -1388.3146      1.2707044     -1387.0439     -354846.48      512          
Loop time of 0.791605 on 1 procs for 5000 steps with 40 atoms

Performance: 545.727 ns/day, 0.044 hours/ns, 6316.281 timesteps/s, 252.651 katom-step/s
98.7% CPU use with 1 MPI tasks x 1 OpenMP threads

MPI task timing breakdown:
Section |  min time  |  avg time  |  max time  |%varavg| %total
---------------------------------------------------------------
Pair    | 0.52927    | 0.52927    | 0.52927    |   0.0 | 66.86
Kspace  | 0.21469    | 0.21469    | 0.21469    |   0.0 | 27.12
Neigh   | 0.002283   | 0.002283   | 0.002283   |   0.0 |  0.29
Comm    | 0.035036   | 0.035036   | 0.035036   |   0.0 |  4.43
Output  | 0.000645   | 0.000645   | 0.000645   |   0.0 |  0.08
Modify  | 0.005315   | 0.005315   | 0.005315   |   0.0 |  0.67
Other   |            | 0.004371   |            |       |  0.55

Nlocal:             40 ave          40 max          40 min
Histogram: 1 0 0 0 0 0 0 0 0 0
Nghost:           2520 ave        2520 max        2520 min
Histogram: 1 0 0 0 0 0 0 0 0 0
Neighs:          11265 ave       11265 max       11265 min
Histogram: 1 0 0 0 0 0 0 0 0 0

Total # of neighbors = 11265
Ave neighs/atom = 281.625
Neighbor list builds = 11
Dangerous builds = 0
Applying mechanical stress...
Running piezoelectric simulation...
WARNING: No fixes with time integration, atoms won't move
For more information see https://docs.lammps.org/err0028 (src/verlet.cpp:60)
PPPM initialization ...
  using 12-bit tables for long-range coulomb (src/kspace.cpp:342)
  G vector (1/distance) = 0.32333097
  grid = 9 9 9
  stencil order = 5
  estimated absolute RMS force accuracy = 0.00066387124
  estimated relative force accuracy = 4.6103306e-05
  using double precision FFTW3
  3d grid and FFT values/proc = 4096 729
Generated 0 of 3 mixed pair_coeff terms from geometric mixing rule
Setting up Verlet run ...
  Unit style    : metal
  Current step  : 5001
  Time step     : 0.001
Per MPI rank memory allocation (min/avg/max) = 3.822 | 3.822 | 3.822 Mbytes
   Step          Temp          Press          Volume     c_dipole_moment[1] c_dipole_moment[2] c_dipole_moment[3]
      5001   252.06659     -354846.48      512           -7.7534983      43.855191      13.658168    
      5050   252.06659     -354846.48      512           -7.7534983      43.855191      13.658168    
      5100   252.06659     -354846.48      512           -7.7534983      43.855191      13.658168    
      5150   252.06659     -354846.48      512           -7.7534983      43.855191      13.658168    
      5200   252.06659     -354846.48      512           -7.7534983      43.855191      13.658168    
      5250   252.06659     -354846.48      512           -7.7534983      43.855191      13.658168    
      5300   252.06659     -354846.48      512           -7.7534983      43.855191      13.658168    
      5350   252.06659     -354846.48      512           -7.7534983      43.855191      13.658168    
      5400   252.06659     -354846.48      512           -7.7534983      43.855191      13.658168    
      5450   252.06659     -354846.48      512           -7.7534983      43.855191      13.658168    
      5500   252.06659     -354846.48      512           -7.7534983      43.855191      13.658168    
      5550   252.06659     -354846.48      512           -7.7534983      43.855191      13.658168    
      5600   252.06659     -354846.48      512           -7.7534983      43.855191      13.658168    
      5650   252.06659     -354846.48      512           -7.7534983      43.855191      13.658168    
      5700   252.06659     -354846.48      512           -7.7534983      43.855191      13.658168    
      5750   252.06659     -354846.48      512           -7.7534983      43.855191      13.658168    
      5800   252.06659     -354846.48      512           -7.7534983      43.855191      13.658168    
      5850   252.06659     -354846.48      512           -7.7534983      43.855191      13.658168    
      5900   252.06659     -354846.48      512           -7.7534983      43.855191      13.658168    
      5950   252.06659     -354846.48      512           -7.7534983      43.855191      13.658168    
      6000   252.06659     -354846.48      512           -7.7534983      43.855191      13.658168    
      6050   252.06659     -354846.48      512           -7.7534983      43.855191      13.658168    
      6100   252.06659     -354846.48      512           -7.7534983      43.855191      13.658168    
      6150   252.06659     -354846.48      512           -7.7534983      43.855191      13.658168    
      6200   252.06659     -354846.48      512           -7.7534983      43.855191      13.658168    
      6250   252.06659     -354846.48      512           -7.7534983      43.855191      13.658168    
      6300   252.06659     -354846.48      512           -7.7534983      43.855191      13.658168    
      6350   252.06659     -354846.48      512           -7.7534983      43.855191      13.658168    
      6400   252.06659     -354846.48      512           -7.7534983      43.855191      13.658168    
      6450   252.06659     -354846.48      512           -7.7534983      43.855191      13.658168    
      6500   252.06659     -354846.48      512           -7.7534983      43.855191      13.658168    
      6550   252.06659     -354846.48      512           -7.7534983      43.855191      13.658168    
      6600   252.06659     -354846.48      512           -7.7534983      43.855191      13.658168    
      6650   252.06659     -354846.48      512           -7.7534983      43.855191      13.658168    
      6700   252.06659     -354846.48      512           -7.7534983      43.855191      13.658168    
      6750   252.06659     -354846.48      512           -7.7534983      43.855191      13.658168    
      6800   252.06659     -354846.48      512           -7.7534983      43.855191      13.658168    
      6850   252.06659     -354846.48      512           -7.7534983      43.855191      13.658168    
      6900   252.06659     -354846.48      512           -7.7534983      43.855191      13.658168    
      6950   252.06659     -354846.48      512           -7.7534983      43.855191      13.658168    
      7000   252.06659     -354846.48      512           -7.7534983      43.855191      13.658168    
      7050   252.06659     -354846.48      512           -7.7534983      43.855191      13.658168    
      7100   252.06659     -354846.48      512           -7.7534983      43.855191      13.658168    
      7150   252.06659     -354846.48      512           -7.7534983      43.855191      13.658168    
      7200   252.06659     -354846.48      512           -7.7534983      43.855191      13.658168    
      7250   252.06659     -354846.48      512           -7.7534983      43.855191      13.658168    
      7300   252.06659     -354846.48      512           -7.7534983      43.855191      13.658168    
      7350   252.06659     -354846.48      512           -7.7534983      43.855191      13.658168    
      7400   252.06659     -354846.48      512           -7.7534983      43.855191      13.658168    
      7450   252.06659     -354846.48      512           -7.7534983      43.855191      13.658168    
      7500   252.06659     -354846.48      512           -7.7534983      43.855191      13.658168    
      7550   252.06659     -354846.48      512           -7.7534983      43.855191      13.658168    
      7600   252.06659     -354846.48      512           -7.7534983      43.855191      13.658168    
      7650   252.06659     -354846.48      512           -7.7534983      43.855191      13.658168    
      7700   252.06659     -354846.48      512           -7.7534983      43.855191      13.658168    
      7750   252.06659     -354846.48      512           -7.7534983      43.855191      13.658168    
      7800   252.06659     -354846.48      512           -7.7534983      43.855191      13.658168    
      7850   252.06659     -354846.48      512           -7.7534983      43.855191      13.658168    
      7900   252.06659     -354846.48      512           -7.7534983      43.855191      13.658168    
      7950   252.06659     -354846.48      512           -7.7534983      43.855191      13.658168    
      8000   252.06659     -354846.48      512           -7.7534983      43.855191      13.658168    
      8050   252.06659     -354846.48      512           -7.7534983      43.855191      13.658168    
      8100   252.06659     -354846.48      512           -7.7534983      43.855191      13.658168    
      8150   252.06659     -354846.48      512           -7.7534983      43.855191      13.658168    
      8200   252.06659     -354846.48      512           -7.7534983      43.855191      13.658168    
      8250   252.06659     -354846.48      512           -7.7534983      43.855191      13.658168    
      8300   252.06659     -354846.48      512           -7.7534983      43.855191      13.658168    
      8350   252.06659     -354846.48      512           -7.7534983      43.855191      13.658168    
      8400   252.06659     -354846.48      512           -7.7534983      43.855191      13.658168    
      8450   252.06659     -354846.48      512           -7.7534983      43.855191      13.658168    
      8500   252.06659     -354846.48      512           -7.7534983      43.855191      13.658168    
      8550   252.06659     -354846.48      512           -7.7534983      43.855191      13.658168    
      8600   252.06659     -354846.48      512           -7.7534983      43.855191      13.658168    
      8650   252.06659     -354846.48      512           -7.7534983      43.855191      13.658168    
      8700   252.06659     -354846.48      512           -7.7534983      43.855191      13.658168    
      8750   252.06659     -354846.48      512           -7.7534983      43.855191      13.658168    
      8800   252.06659     -354846.48      512           -7.7534983      43.855191      13.658168    
      8850   252.06659     -354846.48      512           -7.7534983      43.855191      13.658168    
      8900   252.06659     -354846.48      512           -7.7534983      43.855191      13.658168    
      8950   252.06659     -354846.48      512           -7.7534983      43.855191      13.658168    
      9000   252.06659     -354846.48      512           -7.7534983      43.855191      13.658168    
      9050   252.06659     -354846.48      512           -7.7534983      43.855191      13.658168    
      9100   252.06659     -354846.48      512           -7.7534983      43.855191      13.658168    
      9150   252.06659     -354846.48      512           -7.7534983      43.855191      13.658168    
      9200   252.06659     -354846.48      512           -7.7534983      43.855191      13.658168    
      9250   252.06659     -354846.48      512           -7.7534983      43.855191      13.658168    
      9300   252.06659     -354846.48      512           -7.7534983      43.855191      13.658168    
      9350   252.06659     -354846.48      512           -7.7534983      43.855191      13.658168    
      9400   252.06659     -354846.48      512           -7.7534983      43.855191      13.658168    
      9450   252.06659     -354846.48      512           -7.7534983      43.855191      13.658168    
      9500   252.06659     -354846.48      512           -7.7534983      43.855191      13.658168    
      9550   252.06659     -354846.48      512           -7.7534983      43.855191      13.658168    
      9600   252.06659     -354846.48      512           -7.7534983      43.855191      13.658168    
      9650   252.06659     -354846.48      512           -7.7534983      43.855191      13.658168    
      9700   252.06659     -354846.48      512           -7.7534983      43.855191      13.658168    
      9750   252.06659     -354846.48      512           -7.7534983      43.855191      13.658168    
      9800   252.06659     -354846.48      512           -7.7534983      43.855191      13.658168    
      9850   252.06659     -354846.48      512           -7.7534983      43.855191      13.658168    
      9900   252.06659     -354846.48      512           -7.7534983      43.855191      13.658168    
      9950   252.06659     -354846.48      512           -7.7534983      43.855191      13.658168    
     10000   252.06659     -354846.48      512           -7.7534983      43.855191      13.658168    
     10050   252.06659     -354846.48      512           -7.7534983      43.855191      13.658168    
     10100   252.06659     -354846.48      512           -7.7534983      43.855191      13.658168    
     10150   252.06659     -354846.48      512           -7.7534983      43.855191      13.658168    
     10200   252.06659     -354846.48      512           -7.7534983      43.855191      13.658168    
     10250   252.06659     -354846.48      512           -7.7534983      43.855191      13.658168    
     10300   252.06659     -354846.48      512           -7.7534983      43.855191      13.658168    
     10350   252.06659     -354846.48      512           -7.7534983      43.855191      13.658168    
     10400   252.06659     -354846.48      512           -7.7534983      43.855191      13.658168    
     10450   252.06659     -354846.48      512           -7.7534983      43.855191      13.658168    
     10500   252.06659     -354846.48      512           -7.7534983      43.855191      13.658168    
     10550   252.06659     -354846.48      512           -7.7534983      43.855191      13.658168    
     10600   252.06659     -354846.48      512           -7.7534983      43.855191      13.658168    
     10650   252.06659     -354846.48      512           -7.7534983      43.855191      13.658168    
     10700   252.06659     -354846.48      512           -7.7534983      43.855191      13.658168    
     10750   252.06659     -354846.48      512           -7.7534983      43.855191      13.658168    
     10800   252.06659     -354846.48      512           -7.7534983      43.855191      13.658168    
     10850   252.06659     -354846.48      512           -7.7534983      43.855191      13.658168    
     10900   252.06659     -354846.48      512           -7.7534983      43.855191      13.658168    
     10950   252.06659     -354846.48      512           -7.7534983      43.855191      13.658168    
     11000   252.06659     -354846.48      512           -7.7534983      43.855191      13.658168    
     11050   252.06659     -354846.48      512           -7.7534983      43.855191      13.658168    
     11100   252.06659     -354846.48      512           -7.7534983      43.855191      13.658168    
     11150   252.06659     -354846.48      512           -7.7534983      43.855191      13.658168    
     11200   252.06659     -354846.48      512           -7.7534983      43.855191      13.658168    
     11250   252.06659     -354846.48      512           -7.7534983      43.855191      13.658168    
     11300   252.06659     -354846.48      512           -7.7534983      43.855191      13.658168    
     11350   252.06659     -354846.48      512           -7.7534983      43.855191      13.658168    
     11400   252.06659     -354846.48      512           -7.7534983      43.855191      13.658168    
     11450   252.06659     -354846.48      512           -7.7534983      43.855191      13.658168    
     11500   252.06659     -354846.48      512           -7.7534983      43.855191      13.658168    
     11550   252.06659     -354846.48      512           -7.7534983      43.855191      13.658168    
     11600   252.06659     -354846.48      512           -7.7534983      43.855191      13.658168    
     11650   252.06659     -354846.48      512           -7.7534983      43.855191      13.658168    
     11700   252.06659     -354846.48      512           -7.7534983      43.855191      13.658168    
     11750   252.06659     -354846.48      512           -7.7534983      43.855191      13.658168    
     11800   252.06659     -354846.48      512           -7.7534983      43.855191      13.658168    
     11850   252.06659     -354846.48      512           -7.7534983      43.855191      13.658168    
     11900   252.06659     -354846.48      512           -7.7534983      43.855191      13.658168    
     11950   252.06659     -354846.48      512           -7.7534983      43.855191      13.658168    
     12000   252.06659     -354846.48      512           -7.7534983      43.855191      13.658168    
     12050   252.06659     -354846.48      512           -7.7534983      43.855191      13.658168    
     12100   252.06659     -354846.48      512           -7.7534983      43.855191      13.658168    
     12150   252.06659     -354846.48      512           -7.7534983      43.855191      13.658168    
     12200   252.06659     -354846.48      512           -7.7534983      43.855191      13.658168    
     12250   252.06659     -354846.48      512           -7.7534983      43.855191      13.658168    
     12300   252.06659     -354846.48      512           -7.7534983      43.855191      13.658168    
     12350   252.06659     -354846.48      512           -7.7534983      43.855191      13.658168    
     12400   252.06659     -354846.48      512           -7.7534983      43.855191      13.658168    
     12450   252.06659     -354846.48      512           -7.7534983      43.855191      13.658168    
     12500   252.06659     -354846.48      512           -7.7534983      43.855191      13.658168    
     12550   252.06659     -354846.48      512           -7.7534983      43.855191      13.658168    
     12600   252.06659     -354846.48      512           -7.7534983      43.855191      13.658168    
     12650   252.06659     -354846.48      512           -7.7534983      43.855191      13.658168    
     12700   252.06659     -354846.48      512           -7.7534983      43.855191      13.658168    
     12750   252.06659     -354846.48      512           -7.7534983      43.855191      13.658168    
     12800   252.06659     -354846.48      512           -7.7534983      43.855191      13.658168    
     12850   252.06659     -354846.48      512           -7.7534983      43.855191      13.658168    
     12900   252.06659     -354846.48      512           -7.7534983      43.855191      13.658168    
     12950   252.06659     -354846.48      512           -7.7534983      43.855191      13.658168    
     13000   252.06659     -354846.48      512           -7.7534983      43.855191      13.658168    
     13050   252.06659     -354846.48      512           -7.7534983      43.855191      13.658168    
     13100   252.06659     -354846.48      512           -7.7534983      43.855191      13.658168    
     13150   252.06659     -354846.48      512           -7.7534983      43.855191      13.658168    
     13200   252.06659     -354846.48      512           -7.7534983      43.855191      13.658168    
     13250   252.06659     -354846.48      512           -7.7534983      43.855191      13.658168    
     13300   252.06659     -354846.48      512           -7.7534983      43.855191      13.658168    
     13350   252.06659     -354846.48      512           -7.7534983      43.855191      13.658168    
     13400   252.06659     -354846.48      512           -7.7534983      43.855191      13.658168    
     13450   252.06659     -354846.48      512           -7.7534983      43.855191      13.658168    
     13500   252.06659     -354846.48      512           -7.7534983      43.855191      13.658168    
     13550   252.06659     -354846.48      512           -7.7534983      43.855191      13.658168    
     13600   252.06659     -354846.48      512           -7.7534983      43.855191      13.658168    
     13650   252.06659     -354846.48      512           -7.7534983      43.855191      13.658168    
     13700   252.06659     -354846.48      512           -7.7534983      43.855191      13.658168    
     13750   252.06659     -354846.48      512           -7.7534983      43.855191      13.658168    
     13800   252.06659     -354846.48      512           -7.7534983      43.855191      13.658168    
     13850   252.06659     -354846.48      512           -7.7534983      43.855191      13.658168    
     13900   252.06659     -354846.48      512           -7.7534983      43.855191      13.658168    
     13950   252.06659     -354846.48      512           -7.7534983      43.855191      13.658168    
     14000   252.06659     -354846.48      512           -7.7534983      43.855191      13.658168    
     14050   252.06659     -354846.48      512           -7.7534983      43.855191      13.658168    
     14100   252.06659     -354846.48      512           -7.7534983      43.855191      13.658168    
     14150   252.06659     -354846.48      512           -7.7534983      43.855191      13.658168    
     14200   252.06659     -354846.48      512           -7.7534983      43.855191      13.658168    
     14250   252.06659     -354846.48      512           -7.7534983      43.855191      13.658168    
     14300   252.06659     -354846.48      512           -7.7534983      43.855191      13.658168    
     14350   252.06659     -354846.48      512           -7.7534983      43.855191      13.658168    
     14400   252.06659     -354846.48      512           -7.7534983      43.855191      13.658168    
     14450   252.06659     -354846.48      512           -7.7534983      43.855191      13.658168    
     14500   252.06659     -354846.48      512           -7.7534983      43.855191      13.658168    
     14550   252.06659     -354846.48      512           -7.7534983      43.855191      13.658168    
     14600   252.06659     -354846.48      512           -7.7534983      43.855191      13.658168    
     14650   252.06659     -354846.48      512           -7.7534983      43.855191      13.658168    
     14700   252.06659     -354846.48      512           -7.7534983      43.855191      13.658168    
     14750   252.06659     -354846.48      512           -7.7534983      43.855191      13.658168    
     14800   252.06659     -354846.48      512           -7.7534983      43.855191      13.658168    
     14850   252.06659     -354846.48      512           -7.7534983      43.855191      13.658168    
     14900   252.06659     -354846.48      512           -7.7534983      43.855191      13.658168    
     14950   252.06659     -354846.48      512           -7.7534983      43.855191      13.658168    
     15000   252.06659     -354846.48      512           -7.7534983      43.855191      13.658168    
     15001   252.06659     -354846.48      512           -7.7534983      43.855191      13.658168    
Loop time of 1.66349 on 1 procs for 10000 steps with 40 atoms

Performance: 519.390 ns/day, 0.046 hours/ns, 6011.454 timesteps/s, 240.458 katom-step/s
96.7% CPU use with 1 MPI tasks x 1 OpenMP threads

MPI task timing breakdown:
Section |  min time  |  avg time  |  max time  |%varavg| %total
---------------------------------------------------------------
Pair    | 1.1418     | 1.1418     | 1.1418     |   0.0 | 68.64
Kspace  | 0.43147    | 0.43147    | 0.43147    |   0.0 | 25.94
Neigh   | 0          | 0          | 0          |   0.0 |  0.00
Comm    | 0.068589   | 0.068589   | 0.068589   |   0.0 |  4.12
Output  | 0.003455   | 0.003455   | 0.003455   |   0.0 |  0.21
Modify  | 0.009798   | 0.009798   | 0.009798   |   0.0 |  0.59
Other   |            | 0.008366   |            |       |  0.50

Nlocal:             40 ave          40 max          40 min
Histogram: 1 0 0 0 0 0 0 0 0 0
Nghost:           2520 ave        2520 max        2520 min
Histogram: 1 0 0 0 0 0 0 0 0 0
Neighs:          11233 ave       11233 max       11233 min
Histogram: 1 0 0 0 0 0 0 0 0 0

Total # of neighbors = 11233
Ave neighs/atom = 280.825
Neighbor list builds = 0
Dangerous builds = 0
Analyzing strain response...
Changing box ...
  orthogonal box = (0 0 -0.02) to (8 8 8.02)
PPPM initialization ...
  using 12-bit tables for long-range coulomb (src/kspace.cpp:342)
  G vector (1/distance) = 0.32321569
  grid = 9 9 9
  stencil order = 5
  estimated absolute RMS force accuracy = 0.00066718253
  estimated relative force accuracy = 4.6333262e-05
  using double precision FFTW3
  3d grid and FFT values/proc = 4096 729
Generated 0 of 3 mixed pair_coeff terms from geometric mixing rule
Setting up Verlet run ...
  Unit style    : metal
  Current step  : 15001
  Time step     : 0.001
Per MPI rank memory allocation (min/avg/max) = 5.078 | 5.078 | 5.078 Mbytes
   Step          Temp          Press          Volume     c_dipole_moment[1] c_dipole_moment[2] c_dipole_moment[3]
     15001   252.06659     -376701.11      514.56        -7.7534983      43.855191      13.726459    
     15050   336.19425     -383819         514.56        -7.4381352      43.599828      13.41563     
     15100   332.7994      -386222.15      514.56        -7.6108386      43.442664      13.361868    
     15150   289.38036     -377284.71      514.56        -7.1917448      44.129418      13.271487    
     15200   290.38942     -366008.38      514.56        -7.3912037      43.275788      13.303911    
     15250   286.48747     -385427.03      514.56        -7.2499985      43.159702      13.251268    
     15300   268.38928     -379058.99      514.56        -7.4882986      43.222869      13.535415    
     15350   273.95367     -377461.21      514.56        -7.2288698      43.556808      12.961581    
     15400   265.52334     -378289.59      514.56        -6.9002286      43.96584       13.143828    
     15450   288.14442     -374024.82      514.56        -6.9083904      43.845576      13.360161    
     15500   287.85142     -378760.01      514.56        -6.8052256      43.758651      13.664462    
     15550   297.26648     -390184.25      514.56        -7.3178518      43.262987      13.503463    
     15600   306.33384     -388416.23      514.56        -7.3715965      43.346114      13.096528    
     15650   322.95297     -396295.52      514.56        -7.2568651      43.122546      13.174418    
     15700   311.34798     -380560.48      514.56        -7.0588594      42.911902      13.1277      
     15750   304.46182     -364677.69      514.56        -7.532694       43.668807      13.595834    
     15800   303.30629     -387052.85      514.56        -7.5811002      43.736009      12.994096    
     15850   270.88354     -386466.23      514.56        -7.5838043      43.867945      13.687269    
     15900   270.4549      -386807.4       514.56        -7.4029748      43.809052      12.724413    
     15950   270.2357      -375649.11      514.56        -7.6360556      44.216667      13.411036    
     16000   246.11527     -394705.84      514.56        -7.2329158      43.433594      13.468286    
     16001   243.45022     -394811.24      514.56        -7.2164828      43.479009      13.433374    
Loop time of 0.165454 on 1 procs for 1000 steps with 40 atoms

Performance: 522.200 ns/day, 0.046 hours/ns, 6043.976 timesteps/s, 241.759 katom-step/s
103.9% CPU use with 1 MPI tasks x 1 OpenMP threads

MPI task timing breakdown:
Section |  min time  |  avg time  |  max time  |%varavg| %total
---------------------------------------------------------------
Pair    | 0.11288    | 0.11288    | 0.11288    |   0.0 | 68.22
Kspace  | 0.043556   | 0.043556   | 0.043556   |   0.0 | 26.33
Neigh   | 0          | 0          | 0          |   0.0 |  0.00
Comm    | 0.006835   | 0.006835   | 0.006835   |   0.0 |  4.13
Output  | 0.000269   | 0.000269   | 0.000269   |   0.0 |  0.16
Modify  | 0.001137   | 0.001137   | 0.001137   |   0.0 |  0.69
Other   |            | 0.000778   |            |       |  0.47

Nlocal:             40 ave          40 max          40 min
Histogram: 1 0 0 0 0 0 0 0 0 0
Nghost:           2472 ave        2472 max        2472 min
Histogram: 1 0 0 0 0 0 0 0 0 0
Neighs:          11176 ave       11176 max       11176 min
Histogram: 1 0 0 0 0 0 0 0 0 0

Total # of neighbors = 11176
Ave neighs/atom = 279.4
Neighbor list builds = 0
Dangerous builds = 0
0.005 13.433374443701096013
Changing box ...
  orthogonal box = (0 0 -0.0602) to (8 8 8.0602)
PPPM initialization ...
  using 12-bit tables for long-range coulomb (src/kspace.cpp:342)
  G vector (1/distance) = 0.3229779
  grid = 9 9 9
  stencil order = 5
  estimated absolute RMS force accuracy = 0.00067417215
  estimated relative force accuracy = 4.6818664e-05
  using double precision FFTW3
  3d grid and FFT values/proc = 4096 729
Generated 0 of 3 mixed pair_coeff terms from geometric mixing rule
Setting up Verlet run ...
  Unit style    : metal
  Current step  : 16001
  Time step     : 0.001
Per MPI rank memory allocation (min/avg/max) = 5.078 | 5.078 | 5.078 Mbytes
   Step          Temp          Press          Volume     c_dipole_moment[1] c_dipole_moment[2] c_dipole_moment[3]
     16001   243.45022     -434214.65      519.7056      -7.2164828      43.479009      13.567708    
     16050   260.55404     -416014.67      519.7056      -7.5269773      43.666435      13.962924    
     16100   260.27592     -446911.88      519.7056      -6.9080706      42.995159      13.146556    
     16150   304.81404     -430574.31      519.7056      -7.001707       43.393403      13.366961    
     16200   306.96127     -418242.06      519.7056      -6.9934085      43.902533      13.350074    
     16250   281.24635     -407450.87      519.7056      -7.2217391      44.19542       13.553057    
     16300   303.29228     -409204.57      519.7056      -7.1418332      43.261014      13.325971    
     16350   316.67624     -415568.36      519.7056      -7.2907534      43.644374      13.266387    
     16400   336.8894      -400187.92      519.7056      -7.4725905      43.226621      13.582679    
     16450   271.47883     -418474.61      519.7056      -7.3637337      43.276802      13.804369    
     16500   266.97873     -417713.04      519.7056      -7.7974811      43.485249      13.020993    
     16550   288.88874     -406499.52      519.7056      -7.7256591      43.64458       13.764092    
     16600   224.82022     -413633.88      519.7056      -7.3996923      43.588915      13.3727      
     16650   258.33534     -404103.6       519.7056      -7.3691962      43.976155      13.752412    
     16700   271.40868     -407982.38      519.7056      -7.6843119      43.695129      13.295422    
     16750   274.01985     -394172.48      519.7056      -7.601923       43.585838      13.783585    
     16800   298.29891     -401253.43      519.7056      -7.4521097      43.520462      13.255927    
     16850   308.3257      -411929.67      519.7056      -7.3041237      43.845593      13.730119    
     16900   322.95271     -406361.07      519.7056      -7.2074929      43.170748      13.572037    
     16950   319.36517     -402980.18      519.7056      -7.1172651      43.392828      13.535364    
     17000   283.91182     -427256.94      519.7056      -7.0397012      43.451227      13.242016    
     17001   282.06815     -431059.12      519.7056      -7.03517        43.392472      13.28162     
Loop time of 0.163348 on 1 procs for 1000 steps with 40 atoms

Performance: 528.932 ns/day, 0.045 hours/ns, 6121.899 timesteps/s, 244.876 katom-step/s
95.7% CPU use with 1 MPI tasks x 1 OpenMP threads

MPI task timing breakdown:
Section |  min time  |  avg time  |  max time  |%varavg| %total
---------------------------------------------------------------
Pair    | 0.1112     | 0.1112     | 0.1112     |   0.0 | 68.07
Kspace  | 0.043063   | 0.043063   | 0.043063   |   0.0 | 26.36
Neigh   | 0          | 0          | 0          |   0.0 |  0.00
Comm    | 0.006805   | 0.006805   | 0.006805   |   0.0 |  4.17
Output  | 0.000295   | 0.000295   | 0.000295   |   0.0 |  0.18
Modify  | 0.001185   | 0.001185   | 0.001185   |   0.0 |  0.73
Other   |            | 0.000804   |            |       |  0.49

Nlocal:             40 ave          40 max          40 min
Histogram: 1 0 0 0 0 0 0 0 0 0
Nghost:           2456 ave        2456 max        2456 min
Histogram: 1 0 0 0 0 0 0 0 0 0
Neighs:          11057 ave       11057 max       11057 min
Histogram: 1 0 0 0 0 0 0 0 0 0

Total # of neighbors = 11057
Ave neighs/atom = 276.425
Neighbor list builds = 0
Dangerous builds = 0
0.01 13.281619774258640376
Changing box ...
  orthogonal box = (0 0 -0.121103) to (8 8 8.121103)
PPPM initialization ...
  using 12-bit tables for long-range coulomb (src/kspace.cpp:342)
  G vector (1/distance) = 0.31633183
  grid = 8 8 9
  stencil order = 5
  estimated absolute RMS force accuracy = 0.0010184591
  estimated relative force accuracy = 7.0728068e-05
  using double precision FFTW3
  3d grid and FFT values/proc = 3600 576
Generated 0 of 3 mixed pair_coeff terms from geometric mixing rule
Setting up Verlet run ...
  Unit style    : metal
  Current step  : 17001
  Time step     : 0.001
Per MPI rank memory allocation (min/avg/max) = 5.043 | 5.043 | 5.043 Mbytes
   Step          Temp          Press          Volume     c_dipole_moment[1] c_dipole_moment[2] c_dipole_moment[3]
     17001   282.06815     -483938.74      527.50118     -7.03517        43.392472      13.480844    
     17050   299.77956     -467079.94      527.50118     -6.9124936      44.015601      13.433932    
     17100   271.68819     -466976.47      527.50118     -6.9810191      44.086124      13.593616    
     17150   284.32724     -440324.46      527.50118     -7.3206378      44.046713      13.623548    
     17200   272.37009     -451616.9       527.50118     -7.1718702      43.526986      13.790029    
     17250   256.37406     -433742.03      527.50118     -7.1844634      43.931462      13.662985    
     17300   269.1845      -447943.4       527.50118     -7.2142398      43.593605      13.810135    
     17350   257.06345     -464326.24      527.50118     -7.0090828      43.651298      13.775978    
     17400   263.46581     -474678.57      527.50118     -7.2766081      43.011732      13.688533    
     17450   275.55974     -449818.87      527.50118     -7.3081221      43.651859      13.82786     
     17500   283.51291     -460742.94      527.50118     -7.2954856      43.721641      13.864641    
     17550   257.6653      -443245.36      527.50118     -7.0558804      44.149463      13.758272    
     17600   309.92323     -440513.89      527.50118     -7.2776975      43.665384      13.753899    
     17650   309.78628     -423335.96      527.50118     -7.3517403      43.041863      13.660112    
     17700   301.47093     -450325.86      527.50118     -7.5796477      43.193789      14.017923    
     17750   310.7504      -447013.81      527.50118     -8.0110003      43.531177      14.078735    
     17800   330.5816      -438887.69      527.50118     -7.9451157      43.17007       13.903317    
     17850   318.70704     -437696.41      527.50118     -7.4555661      43.438024      13.557276    
     17900   304.75779     -453296         527.50118     -7.2516968      43.455179      13.574597    
     17950   269.87287     -440268.64      527.50118     -7.420026       44.029393      14.026404    
     18000   266.19452     -449886.88      527.50118     -7.4861158      43.796442      13.77199     
     18001   259.14207     -449495.57      527.50118     -7.5013858      43.846057      13.7617      
Loop time of 0.151903 on 1 procs for 1000 steps with 40 atoms

Performance: 568.784 ns/day, 0.042 hours/ns, 6583.148 timesteps/s, 263.326 katom-step/s
92.6% CPU use with 1 MPI tasks x 1 OpenMP threads

MPI task timing breakdown:
Section |  min time  |  avg time  |  max time  |%varavg| %total
---------------------------------------------------------------
Pair    | 0.10757    | 0.10757    | 0.10757    |   0.0 | 70.82
Kspace  | 0.035549   | 0.035549   | 0.035549   |   0.0 | 23.40
Neigh   | 0          | 0          | 0          |   0.0 |  0.00
Comm    | 0.006591   | 0.006591   | 0.006591   |   0.0 |  4.34
Output  | 0.000276   | 0.000276   | 0.000276   |   0.0 |  0.18
Modify  | 0.00116    | 0.00116    | 0.00116    |   0.0 |  0.76
Other   |            | 0.000754   |            |       |  0.50

Nlocal:             40 ave          40 max          40 min
Histogram: 1 0 0 0 0 0 0 0 0 0
Nghost:           2392 ave        2392 max        2392 min
Histogram: 1 0 0 0 0 0 0 0 0 0
Neighs:          10918 ave       10918 max       10918 min
Histogram: 1 0 0 0 0 0 0 0 0 0

Total # of neighbors = 10918
Ave neighs/atom = 272.95
Neighbor list builds = 0
Dangerous builds = 0
0.015 13.761699800843562258
Changing box ...
  orthogonal box = (0 0 -0.20352506) to (8 8 8.2035251)
PPPM initialization ...
  using 12-bit tables for long-range coulomb (src/kspace.cpp:342)
  G vector (1/distance) = 0.31606411
  grid = 8 8 9
  stencil order = 5
  estimated absolute RMS force accuracy = 0.0010258649
  estimated relative force accuracy = 7.1242372e-05
  using double precision FFTW3
  3d grid and FFT values/proc = 3600 576
Generated 0 of 3 mixed pair_coeff terms from geometric mixing rule
Setting up Verlet run ...
  Unit style    : metal
  Current step  : 18001
  Time step     : 0.001
Per MPI rank memory allocation (min/avg/max) = 5.043 | 5.043 | 5.043 Mbytes
   Step          Temp          Press          Volume     c_dipole_moment[1] c_dipole_moment[2] c_dipole_moment[3]
     18001   259.14207     -510656.74      538.05121     -7.5013858      43.846057      14.036934    
     18050   293.87891     -505800.47      538.05121     -7.6124474      43.70019       14.167268    
     18100   249.73541     -520764.87      538.05121     -7.3256273      43.302196      13.912104    
     18150   328.88822     -489887.1       538.05121     -7.4263433      43.765582      14.224617    
     18200   334.06374     -486352.44      538.05121     -7.615599       43.687063      14.330431    
     18250   301.84657     -484388.8       538.05121     -7.8163713      44.655568      14.139651    
     18300   327.0596      -486189.59      538.05121     -7.6041556      43.783416      14.635479    
     18350   305.44668     -484914.36      538.05121     -7.3185806      43.868395      14.469291    
     18400   326.4458      -485171.61      538.05121     -7.6502813      43.646668      13.987562    
     18450   292.15583     -509824.69      538.05121     -7.6940429      43.836786      14.036621    
     18500   315.61248     -498694.84      538.05121     -7.7520981      43.776499      14.558154    
     18550   287.90286     -490316.39      538.05121     -7.5103929      42.907771      14.404541    
     18600   290.38254     -494400.56      538.05121     -7.4368256      43.808415      13.997387    
     18650   265.58723     -494606.71      538.05121     -7.523751       43.920237      14.013853    
     18700   290.18888     -484231.07      538.05121     -7.6011732      43.622384      14.533436    
     18750   280.02027     -488124.68      538.05121     -7.4276358      43.822251      14.628649    
     18800   259.89888     -499001.58      538.05121     -7.7455191      43.336335      13.654252    
     18850   267.22659     -497235.59      538.05121     -7.3581498      43.481537      13.758503    
     18900   282.23522     -488107.92      538.05121     -7.1821841      43.745582      14.144458    
     18950   285.54419     -485859.41      538.05121     -7.8753792      43.728679      14.322521    
     19000   275.86667     -486030.77      538.05121     -7.266495       44.238188      14.34939     
     19001   276.962       -490892.42      538.05121     -7.251545       44.245853      14.337807    
Loop time of 0.151658 on 1 procs for 1000 steps with 40 atoms

Performance: 569.703 ns/day, 0.042 hours/ns, 6593.783 timesteps/s, 263.751 katom-step/s
92.7% CPU use with 1 MPI tasks x 1 OpenMP threads

MPI task timing breakdown:
Section |  min time  |  avg time  |  max time  |%varavg| %total
---------------------------------------------------------------
Pair    | 0.10704    | 0.10704    | 0.10704    |   0.0 | 70.58
Kspace  | 0.035567   | 0.035567   | 0.035567   |   0.0 | 23.45
Neigh   | 0          | 0          | 0          |   0.0 |  0.00
Comm    | 0.006561   | 0.006561   | 0.006561   |   0.0 |  4.33
Output  | 0.000308   | 0.000308   | 0.000308   |   0.0 |  0.20
Modify  | 0.001362   | 0.001362   | 0.001362   |   0.0 |  0.90
Other   |            | 0.000823   |            |       |  0.54

Nlocal:             40 ave          40 max          40 min
Histogram: 1 0 0 0 0 0 0 0 0 0
Nghost:           2376 ave        2376 max        2376 min
Histogram: 1 0 0 0 0 0 0 0 0 0
Neighs:          10693 ave       10693 max       10693 min
Histogram: 1 0 0 0 0 0 0 0 0 0

Total # of neighbors = 10693
Ave neighs/atom = 267.325
Neighbor list builds = 0
Dangerous builds = 0
0.02 14.337807384149254375
Changing box ...
  orthogonal box = (0 0 -0.30861319) to (8 8 8.3086132)
PPPM initialization ...
  using 12-bit tables for long-range coulomb (src/kspace.cpp:342)
  G vector (1/distance) = 0.31569614
  grid = 8 8 9
  stencil order = 5
  estimated absolute RMS force accuracy = 0.0010374422
  estimated relative force accuracy = 7.2046376e-05
  using double precision FFTW3
  3d grid and FFT values/proc = 3600 576
Generated 0 of 3 mixed pair_coeff terms from geometric mixing rule
Setting up Verlet run ...
  Unit style    : metal
  Current step  : 19001
  Time step     : 0.001
Per MPI rank memory allocation (min/avg/max) = 5.043 | 5.043 | 5.043 Mbytes
   Step          Temp          Press          Volume     c_dipole_moment[1] c_dipole_moment[2] c_dipole_moment[3]
     19001   276.962       -553536.44      551.50249     -7.251545       44.245853      14.696253    
     19050   334.43312     -509775.14      551.50249     -8.5980934      43.192181      14.864685    
     19100   312.6845      -508975.2       551.50249     -7.7635278      43.447779      14.309145    
     19150   282.34632     -514468.65      551.50249     -7.4119634      43.736691      14.676992    
     19200   253.61143     -528381.47      551.50249     -7.3218359      43.448781      14.765871    
     19250   304.00426     -523180.2       551.50249     -7.5413404      43.965487      14.58275     
     19300   293.27033     -517689.3       551.50249     -7.8059018      44.210239      14.548006    
     19350   302.89941     -529997.32      551.50249     -7.6663261      43.640167      14.428521    
     19400   309.83696     -556039.78      551.50249     -7.9239314      44.032335      14.868401    
     19450   292.73299     -530333.29      551.50249     -7.607074       43.838622      14.809659    
     19500   310.73951     -529237.79      551.50249     -7.932191       43.81252       14.681172    
     19550   321.68971     -511616.93      551.50249     -7.9116867      43.612162      14.873497    
     19600   318.26949     -533662.68      551.50249     -8.2573404      43.426853      14.39764     
     19650   365.76551     -523545.37      551.50249     -7.7754171      43.889111      14.394886    
     19700   333.04942     -528558.57      551.50249     -7.4961541      43.694951      14.860942    
     19750   291.46851     -534574.43      551.50249     -7.4648724      44.463111      14.626798    
     19800   332.66743     -545727.77      551.50249     -7.4423317      43.830326      14.400222    
     19850   306.84567     -522551.5       551.50249     -7.9872088      43.397878      14.801736    
     19900   272.76124     -522397.08      551.50249     -7.9952507      43.664595      14.762726    
     19950   275.97207     -535359.51      551.50249     -8.0384413      44.116056      15.280121    
     20000   297.77259     -525570.88      551.50249     -7.5313088      44.217892      14.683255    
     20001   301.12078     -523845.19      551.50249     -7.5499812      44.199557      14.620316    
Loop time of 0.147499 on 1 procs for 1000 steps with 40 atoms

Performance: 585.767 ns/day, 0.041 hours/ns, 6779.707 timesteps/s, 271.188 katom-step/s
105.9% CPU use with 1 MPI tasks x 1 OpenMP threads

MPI task timing breakdown:
Section |  min time  |  avg time  |  max time  |%varavg| %total
---------------------------------------------------------------
Pair    | 0.10221    | 0.10221    | 0.10221    |   0.0 | 69.30
Kspace  | 0.03614    | 0.03614    | 0.03614    |   0.0 | 24.50
Neigh   | 0          | 0          | 0          |   0.0 |  0.00
Comm    | 0.006523   | 0.006523   | 0.006523   |   0.0 |  4.42
Output  | 0.000407   | 0.000407   | 0.000407   |   0.0 |  0.28
Modify  | 0.001403   | 0.001403   | 0.001403   |   0.0 |  0.95
Other   |            | 0.000816   |            |       |  0.55

Nlocal:             40 ave          40 max          40 min
Histogram: 1 0 0 0 0 0 0 0 0 0
Nghost:           2376 ave        2376 max        2376 min
Histogram: 1 0 0 0 0 0 0 0 0 0
Neighs:          10446 ave       10446 max       10446 min
Histogram: 1 0 0 0 0 0 0 0 0 0

Total # of neighbors = 10446
Ave neighs/atom = 261.15
Neighbor list builds = 0
Dangerous builds = 0
0.025 14.62031625059740847
Changing box ...
  orthogonal box = (0 0 -0.43787158) to (8 8 8.4378716)
PPPM initialization ...
  using 12-bit tables for long-range coulomb (src/kspace.cpp:342)
  G vector (1/distance) = 0.31519723
  grid = 8 8 9
  stencil order = 5
  estimated absolute RMS force accuracy = 0.0010553966
  estimated relative force accuracy = 7.3293239e-05
  using double precision FFTW3
  3d grid and FFT values/proc = 3600 576
Generated 0 of 3 mixed pair_coeff terms from geometric mixing rule
Setting up Verlet run ...
  Unit style    : metal
  Current step  : 20001
  Time step     : 0.001
Per MPI rank memory allocation (min/avg/max) = 5.043 | 5.043 | 5.043 Mbytes
   Step          Temp          Press          Volume     c_dipole_moment[1] c_dipole_moment[2] c_dipole_moment[3]
     20001   301.12078     -586621.54      568.04756     -7.5499812      44.199557      15.058926    
     20050   333.27827     -528048.35      568.04756     -7.2119538      43.840209      15.11513     
     20100   334.66167     -527854.64      568.04756     -7.3996556      43.999748      14.435806    
     20150   284.09937     -534857.07      568.04756     -8.131886       43.745112      15.278315    
     20200   294.75061     -545174.11      568.04756     -7.3884317      43.544187      15.192322    
     20250   309.43739     -543738.63      568.04756     -7.7076157      44.302073      15.157131    
     20300   308.1214      -541752.21      568.04756     -7.8492228      44.300351      15.065262    
     20350   302.43607     -553705.06      568.04756     -7.8314031      44.057477      14.948438    
     20400   288.13544     -529930.87      568.04756     -7.5901955      43.648594      15.036596    
     20450   327.34391     -520507.47      568.04756     -7.9556579      43.705009      15.135168    
     20500   334.16749     -539055.84      568.04756     -7.8879302      44.235066      15.034443    
     20550   293.26479     -565222.05      568.04756     -7.6976194      43.711521      15.303683    
     20600   416.87445     -535647.41      568.04756     -7.4617379      43.992432      14.899377    
     20650   345.48259     -510504.36      568.04756     -7.5288285      43.723846      14.895602    
     20700   339.346       -523243.07      568.04756     -7.7576772      43.425614      15.030392    
     20750   321.76299     -521510.55      568.04756     -7.9223416      44.223482      15.26364     
     20800   307.75118     -532904.05      568.04756     -8.1387151      44.165973      15.1276      
     20850   271.41472     -519182.95      568.04756     -7.7546022      44.156072      15.418515    
     20900   282.48027     -519738.02      568.04756     -7.3166997      43.526026      14.992245    
     20950   279.87521     -530780.33      568.04756     -7.4689612      43.228853      15.053689    
     21000   273.29714     -536149.46      568.04756     -7.7470105      44.080575      14.787821    
     21001   278.78989     -538879.54      568.04756     -7.7617709      44.069442      14.75559     
Loop time of 0.145085 on 1 procs for 1000 steps with 40 atoms

Performance: 595.513 ns/day, 0.040 hours/ns, 6892.511 timesteps/s, 275.700 katom-step/s
86.2% CPU use with 1 MPI tasks x 1 OpenMP threads

MPI task timing breakdown:
Section |  min time  |  avg time  |  max time  |%varavg| %total
---------------------------------------------------------------
Pair    | 0.099525   | 0.099525   | 0.099525   |   0.0 | 68.60
Kspace  | 0.036404   | 0.036404   | 0.036404   |   0.0 | 25.09
Neigh   | 0          | 0          | 0          |   0.0 |  0.00
Comm    | 0.006549   | 0.006549   | 0.006549   |   0.0 |  4.51
Output  | 0.000372   | 0.000372   | 0.000372   |   0.0 |  0.26
Modify  | 0.001371   | 0.001371   | 0.001371   |   0.0 |  0.94
Other   |            | 0.000864   |            |       |  0.60

Nlocal:             40 ave          40 max          40 min
Histogram: 1 0 0 0 0 0 0 0 0 0
Nghost:           2376 ave        2376 max        2376 min
Histogram: 1 0 0 0 0 0 0 0 0 0
Neighs:          10183 ave       10183 max       10183 min
Histogram: 1 0 0 0 0 0 0 0 0 0

Total # of neighbors = 10183
Ave neighs/atom = 254.575
Neighbor list builds = 0
Dangerous builds = 0
0.03 14.75559008393008753
Changing box ...
  orthogonal box = (0 0 -0.59319709) to (8 8 8.5931971)
PPPM initialization ...
  using 12-bit tables for long-range coulomb (src/kspace.cpp:342)
  G vector (1/distance) = 0.31452126
  grid = 8 8 9
  stencil order = 5
  estimated absolute RMS force accuracy = 0.0010831991
  estimated relative force accuracy = 7.5224013e-05
  using double precision FFTW3
  3d grid and FFT values/proc = 3600 576
Generated 0 of 3 mixed pair_coeff terms from geometric mixing rule
Setting up Verlet run ...
  Unit style    : metal
  Current step  : 21001
  Time step     : 0.001
Per MPI rank memory allocation (min/avg/max) = 5.043 | 5.043 | 5.043 Mbytes
   Step          Temp          Press          Volume     c_dipole_moment[1] c_dipole_moment[2] c_dipole_moment[3]
     21001   278.78989     -600979.64      587.92923     -7.7617709      44.069442      15.272036    
     21050   337.10748     -492086.52      587.92923     -7.4662893      44.191414      15.824476    
     21100   345.25111     -521492.18      587.92923     -7.529362       44.038729      15.334907    
     21150   339.86036     -514652.3       587.92923     -7.2086574      43.585204      15.565586    
     21200   306.89578     -536150.17      587.92923     -7.3286337      43.51282       15.478551    
     21250   292.78388     -518317.21      587.92923     -7.6270002      44.201433      15.379578    
     21300   280.54763     -523181.85      587.92923     -7.9478168      44.243745      15.663313    
     21350   274.87062     -535196.06      587.92923     -7.6760744      44.416143      15.416732    
     21400   291.58553     -540698.7       587.92923     -7.478569       44.159346      15.774927    
     21450   260.53894     -516377.43      587.92923     -7.5593346      43.445176      15.187361    
     21500   306.58477     -526284.09      587.92923     -7.3199838      44.157493      15.726741    
     21550   308.31301     -521693.59      587.92923     -7.7191735      43.986806      15.643437    
     21600   311.81685     -538743.95      587.92923     -6.9335702      44.284566      15.469824    
     21650   334.18156     -534410.29      587.92923     -7.8592766      44.241875      15.60391     
     21700   352.37615     -538003         587.92923     -7.3863544      43.927385      14.998705    
     21750   331.13913     -512346.86      587.92923     -7.5195366      43.394467      15.542576    
     21800   348.14083     -545993.85      587.92923     -7.5702818      44.157389      15.807626    
     21850   312.54921     -529770.85      587.92923     -7.3459965      43.93339       15.053114    
     21900   320.41254     -541624.53      587.92923     -7.4929602      44.059044      15.297096    
     21950   286.92268     -524405.46      587.92923     -7.0474364      43.917509      15.648954    
     22000   272.63082     -535230.08      587.92923     -7.4722398      43.806828      15.479279    
     22001   273.00669     -534691.77      587.92923     -7.4230247      43.78022       15.475049    
Loop time of 0.144014 on 1 procs for 1000 steps with 40 atoms

Performance: 599.942 ns/day, 0.040 hours/ns, 6943.769 timesteps/s, 277.751 katom-step/s
108.5% CPU use with 1 MPI tasks x 1 OpenMP threads

MPI task timing breakdown:
Section |  min time  |  avg time  |  max time  |%varavg| %total
---------------------------------------------------------------
Pair    | 0.099045   | 0.099045   | 0.099045   |   0.0 | 68.77
Kspace  | 0.036011   | 0.036011   | 0.036011   |   0.0 | 25.01
Neigh   | 0          | 0          | 0          |   0.0 |  0.00
Comm    | 0.006447   | 0.006447   | 0.006447   |   0.0 |  4.48
Output  | 0.000365   | 0.000365   | 0.000365   |   0.0 |  0.25
Modify  | 0.00131    | 0.00131    | 0.00131    |   0.0 |  0.91
Other   |            | 0.000836   |            |       |  0.58

Nlocal:             40 ave          40 max          40 min
Histogram: 1 0 0 0 0 0 0 0 0 0
Nghost:           2312 ave        2312 max        2312 min
Histogram: 1 0 0 0 0 0 0 0 0 0
Neighs:           9675 ave        9675 max        9675 min
Histogram: 1 0 0 0 0 0 0 0 0 0

Total # of neighbors = 9675
Ave neighs/atom = 241.875
Neighbor list builds = 0
Dangerous builds = 0
0.035 15.475049172115042495
Changing box ...
  orthogonal box = (0 0 -0.77692497) to (8 8 8.776925)
PPPM initialization ...
  using 12-bit tables for long-range coulomb (src/kspace.cpp:342)
  G vector (1/distance) = 0.31360173
  grid = 8 8 9
  stencil order = 5
  estimated absolute RMS force accuracy = 0.0011262376
  estimated relative force accuracy = 7.8212875e-05
  using double precision FFTW3
  3d grid and FFT values/proc = 3600 576
Generated 0 of 3 mixed pair_coeff terms from geometric mixing rule
Setting up Verlet run ...
  Unit style    : metal
  Current step  : 22001
  Time step     : 0.001
Per MPI rank memory allocation (min/avg/max) = 5.043 | 5.043 | 5.043 Mbytes
   Step          Temp          Press          Volume     c_dipole_moment[1] c_dipole_moment[2] c_dipole_moment[3]
     22001   273.00669     -596686.11      611.4464      -7.4230247      43.78022       16.094051    
     22050   385.1091      -512676.5       611.4464      -7.1139668      44.924246      16.204436    
     22100   352.72804     -519279.12      611.4464      -7.831064       44.157024      15.356995    
     22150   344.73179     -482084.63      611.4464      -7.2224844      43.060913      15.907529    
     22200   328.58408     -526258.36      611.4464      -7.4603587      44.159179      16.116056    
     22250   324.22972     -526015.87      611.4464      -7.0982525      44.099241      16.283099    
     22300   267.16002     -517206.27      611.4464      -7.0812558      44.233494      16.724683    
     22350   262.38371     -512146.47      611.4464      -7.734496       44.393755      16.301913    
     22400   260.00127     -486586.28      611.4464      -7.4301973      43.839858      16.363411    
     22450   265.15345     -490314.35      611.4464      -7.7329949      43.625027      15.999486    
     22500   260.0672      -532119.32      611.4464      -7.7130718      44.407574      15.99605     
     22550   307.34118     -501533.48      611.4464      -7.7991905      43.820306      16.290657    
     22600   313.59532     -517739.62      611.4464      -7.5744829      44.314761      16.268394    
     22650   371.86243     -519689.32      611.4464      -7.096228       43.531331      15.599401    
     22700   326.48789     -524038.22      611.4464      -6.7842612      43.50562       15.530946    
     22750   320.83283     -504957.61      611.4464      -5.9453111      44.015594      15.612487    
     22800   339.45476     -493409.51      611.4464      -6.6704978      42.893577      15.601005    
     22850   298.56144     -524070.49      611.4464      -6.4357254      42.936768      15.661354    
     22900   281.50703     -516851.74      611.4464      -6.8198126      44.263791      15.694767    
     22950   278.35401     -512902.99      611.4464      -6.3738402      43.137047      16.222556    
     23000   309.4851      -505602.93      611.4464      -6.9301418      43.991026      16.055712    
     23001   308.92685     -507532         611.4464      -6.9232117      44.027896      16.053591    
Loop time of 0.14746 on 1 procs for 1000 steps with 40 atoms

Performance: 585.922 ns/day, 0.041 hours/ns, 6781.500 timesteps/s, 271.260 katom-step/s
84.8% CPU use with 1 MPI tasks x 1 OpenMP threads

MPI task timing breakdown:
Section |  min time  |  avg time  |  max time  |%varavg| %total
---------------------------------------------------------------
Pair    | 0.099499   | 0.099499   | 0.099499   |   0.0 | 67.48
Kspace  | 0.038672   | 0.038672   | 0.038672   |   0.0 | 26.23
Neigh   | 0          | 0          | 0          |   0.0 |  0.00
Comm    | 0.006505   | 0.006505   | 0.006505   |   0.0 |  4.41
Output  | 0.000421   | 0.000421   | 0.000421   |   0.0 |  0.29
Modify  | 0.001489   | 0.001489   | 0.001489   |   0.0 |  1.01
Other   |            | 0.000874   |            |       |  0.59

Nlocal:             40 ave          40 max          40 min
Histogram: 1 0 0 0 0 0 0 0 0 0
Nghost:           2168 ave        2168 max        2168 min
Histogram: 1 0 0 0 0 0 0 0 0 0
Neighs:           9341 ave        9341 max        9341 min
Histogram: 1 0 0 0 0 0 0 0 0 0

Total # of neighbors = 9341
Ave neighs/atom = 233.525
Neighbor list builds = 0
Dangerous builds = 0
0.04 16.053591267566275747
Changing box ...
  orthogonal box = (0 0 -0.99188659) to (8 8 8.9918866)
PPPM initialization ...
  using 12-bit tables for long-range coulomb (src/kspace.cpp:342)
  G vector (1/distance) = 0.31474434
  grid = 8 8 10
  stencil order = 5
  estimated absolute RMS force accuracy = 0.0010230461
  estimated relative force accuracy = 7.1046617e-05
  using double precision FFTW3
  3d grid and FFT values/proc = 3825 640
Generated 0 of 3 mixed pair_coeff terms from geometric mixing rule
Setting up Verlet run ...
  Unit style    : metal
  Current step  : 23001
  Time step     : 0.001
Per MPI rank memory allocation (min/avg/max) = 5.056 | 5.056 | 5.056 Mbytes
   Step          Temp          Press          Volume     c_dipole_moment[1] c_dipole_moment[2] c_dipole_moment[3]
     23001   308.92685     -572065.6       638.96148     -6.9232117      44.027896      16.776003    
     23050   388.83853     -486801.7       638.96148     -6.2520646      43.726879      16.059338    
     23100   401.33537     -484780.89      638.96148     -6.5404284      43.672088      16.309231    
     23150   334.50022     -476014.73      638.96148     -6.0841402      42.889078      15.659086    
     23200   310.07932     -463029.33      638.96148     -6.2205713      43.0666        15.878188    
     23250   287.61692     -500277.41      638.96148     -5.9981666      43.215884      16.37172     
     23300   355.64148     -477850.42      638.96148     -6.1549657      42.985553      16.387695    
     23350   309.05702     -446738.61      638.96148     -5.918493       42.71298       16.281871    
     23400   270.42829     -460941.97      638.96148     -5.6247015      43.191144      16.046276    
     23450   274.59407     -469520.36      638.96148     -6.0447381      43.321351      16.680862    
     23500   283.12953     -482972.04      638.96148     -5.6525271      42.725967      15.922951    
     23550   276.7596      -471710.48      638.96148     -6.4590479      43.335356      16.863529    
     23600   283.90207     -477717.26      638.96148     -6.2494282      43.669833      16.001824    
     23650   312.95707     -476698.39      638.96148     -7.1588507      43.113489      16.374975    
     23700   321.60277     -475617.82      638.96148     -6.7537812      42.088543      16.53703     
     23750   352.92221     -471495.25      638.96148     -6.3546776      43.686825      15.650503    
     23800   318.98454     -446567.62      638.96148     -6.6208215      43.074558      16.688957    
     23850   322.99044     -460412.56      638.96148     -6.0927458      43.061086      16.393482    
     23900   292.40806     -478493.42      638.96148     -5.8465619      43.128162      16.359028    
     23950   290.89864     -492088.18      638.96148     -5.6441313      43.000639      16.105922    
     24000   286.15717     -469758.05      638.96148     -5.8091338      43.029845      16.589918    
     24001   286.32114     -467108.53      638.96148     -5.8137226      43.037974      16.58325     
Loop time of 0.171808 on 1 procs for 1000 steps with 40 atoms

Performance: 502.887 ns/day, 0.048 hours/ns, 5820.451 timesteps/s, 232.818 katom-step/s
100.0% CPU use with 1 MPI tasks x 1 OpenMP threads

MPI task timing breakdown:
Section |  min time  |  avg time  |  max time  |%varavg| %total
---------------------------------------------------------------
Pair    | 0.1106     | 0.1106     | 0.1106     |   0.0 | 64.37
Kspace  | 0.050003   | 0.050003   | 0.050003   |   0.0 | 29.10
Neigh   | 0          | 0          | 0          |   0.0 |  0.00
Comm    | 0.007464   | 0.007464   | 0.007464   |   0.0 |  4.34
Output  | 0.000567   | 0.000567   | 0.000567   |   0.0 |  0.33
Modify  | 0.002076   | 0.002076   | 0.002076   |   0.0 |  1.21
Other   |            | 0.001101   |            |       |  0.64

Nlocal:             40 ave          40 max          40 min
Histogram: 1 0 0 0 0 0 0 0 0 0
Nghost:           2072 ave        2072 max        2072 min
Histogram: 1 0 0 0 0 0 0 0 0 0
Neighs:           8942 ave        8942 max        8942 min
Histogram: 1 0 0 0 0 0 0 0 0 0

Total # of neighbors = 8942
Ave neighs/atom = 223.55
Neighbor list builds = 0
Dangerous builds = 0
0.045 16.583249830329563679
Changing box ...
  orthogonal box = (0 0 -1.2414809) to (8 8 9.2414809)
PPPM initialization ...
  using 12-bit tables for long-range coulomb (src/kspace.cpp:342)
  G vector (1/distance) = 0.31385017
  grid = 8 8 10
  stencil order = 5
  estimated absolute RMS force accuracy = 0.0010570703
  estimated relative force accuracy = 7.3409468e-05
  using double precision FFTW3
  3d grid and FFT values/proc = 3825 640
Generated 0 of 3 mixed pair_coeff terms from geometric mixing rule
Setting up Verlet run ...
  Unit style    : metal
  Current step  : 24001
  Time step     : 0.001
Per MPI rank memory allocation (min/avg/max) = 5.056 | 5.056 | 5.056 Mbytes
   Step          Temp          Press          Volume     c_dipole_moment[1] c_dipole_moment[2] c_dipole_moment[3]
     24001   286.32114     -530682.47      670.90956     -5.8137226      43.037974      17.412412    
     24050   600.28537     -376340.34      670.90956     -6.4067071      42.774068      17.562555    
     24100   460.69261     -442486.54      670.90956     -6.6944081      42.929897      17.952265    
     24150   353.83561     -427958.32      670.90956     -6.5704627      42.886301      17.623583    
     24200   337.23306     -427692.38      670.90956     -6.6210489      43.134811      17.731307    
     24250   353.90674     -396351.67      670.90956     -6.5134077      43.065056      17.778819    
     24300   297.80429     -420262.56      670.90956     -6.3913678      42.261795      17.805133    
     24350   276.49975     -402185.25      670.90956     -6.6406222      42.712378      17.594747    
     24400   280.67414     -400536.43      670.90956     -6.4726828      42.853         17.808934    
     24450   291.85548     -411341.01      670.90956     -7.0810651      43.215114      18.132555    
     24500   252.0013      -407643.68      670.90956     -6.818381       43.348524      17.825082    
     24550   271.67881     -404500.99      670.90956     -7.1685899      43.087195      17.889286    
     24600   286.50327     -417435.42      670.90956     -6.4695208      42.720024      17.143643    
     24650   298.49259     -408324.24      670.90956     -6.8064511      42.67155       17.755544    
     24700   332.23796     -428043.98      670.90956     -6.2661412      42.574823      17.820079    
     24750   319.62103     -424050.78      670.90956     -6.811995       43.148325      17.929613    
     24800   318.41703     -403639.42      670.90956     -6.5151487      42.853986      17.684219    
     24850   337.28286     -399916.02      670.90956     -6.4178134      42.83691       17.993137    
     24900   278.35439     -428833.52      670.90956     -6.6356603      42.888107      17.380731    
     24950   276.28334     -416040.56      670.90956     -6.0838535      42.510676      17.249475    
     25000   271.78313     -407736.13      670.90956     -6.4731312      42.933876      18.255458    
     25001   271.55849     -407309.2       670.90956     -6.462712       42.890007      18.242443    
Loop time of 0.130495 on 1 procs for 1000 steps with 40 atoms

Performance: 662.094 ns/day, 0.036 hours/ns, 7663.129 timesteps/s, 306.525 katom-step/s
107.8% CPU use with 1 MPI tasks x 1 OpenMP threads

MPI task timing breakdown:
Section |  min time  |  avg time  |  max time  |%varavg| %total
---------------------------------------------------------------
Pair    | 0.084162   | 0.084162   | 0.084162   |   0.0 | 64.49
Kspace  | 0.037976   | 0.037976   | 0.037976   |   0.0 | 29.10
Neigh   | 0          | 0          | 0          |   0.0 |  0.00
Comm    | 0.005824   | 0.005824   | 0.005824   |   0.0 |  4.46
Output  | 0.000422   | 0.000422   | 0.000422   |   0.0 |  0.32
Modify  | 0.001337   | 0.001337   | 0.001337   |   0.0 |  1.02
Other   |            | 0.000774   |            |       |  0.59

Nlocal:             40 ave          40 max          40 min
Histogram: 1 0 0 0 0 0 0 0 0 0
Nghost:           2008 ave        2008 max        2008 min
Histogram: 1 0 0 0 0 0 0 0 0 0
Neighs:           8550 ave        8550 max        8550 min
Histogram: 1 0 0 0 0 0 0 0 0 0

Total # of neighbors = 8550
Ave neighs/atom = 213.75
Neighbor list builds = 0
Dangerous builds = 0
0.05 18.242442845730355572
Simulation completed successfully!
Check polarization.dat and strain_polar.dat for results
Total wall time: 0:00:04
