LAMMPS data file for GaN core-shell model

1000 atoms
500 bonds
4 atom types
1 bond types

0.0 15.9450 xlo xhi
0.0 27.6176 ylo yhi
0.0 25.9250 zlo zhi

Masses

1 69.723
2 1.0
3 14.007
4 1.0

Atoms

1 1 3.0000 0.0000 0.0000 0.0000
2 2 0.0000 0.0200 0.0000 0.0000
3 1 3.0000 1.0630 3.6823 2.5925
4 2 0.0000 1.0830 3.6823 2.5925
5 3 -3.0000 0.0000 0.0000 1.9547
6 4 0.0000 0.0200 0.0000 1.9547
7 3 -3.0000 1.0630 3.6823 4.5472
8 4 0.0000 1.0830 3.6823 4.5472
9 1 3.0000 0.0000 0.0000 5.1850
10 2 0.0000 0.0200 0.0000 5.1850
11 1 3.0000 1.0630 3.6823 7.7775
12 2 0.0000 1.0830 3.6823 7.7775
13 3 -3.0000 0.0000 0.0000 7.1397
14 4 0.0000 0.0200 0.0000 7.1397
15 3 -3.0000 1.0630 3.6823 9.7322
16 4 0.0000 1.0830 3.6823 9.7322
17 1 3.0000 0.0000 0.0000 10.3700
18 2 0.0000 0.0200 0.0000 10.3700
19 1 3.0000 1.0630 3.6823 12.9625
20 2 0.0000 1.0830 3.6823 12.9625
21 3 -3.0000 0.0000 0.0000 12.3247
22 4 0.0000 0.0200 0.0000 12.3247
23 3 -3.0000 1.0630 3.6823 14.9172
24 4 0.0000 1.0830 3.6823 14.9172
25 1 3.0000 0.0000 0.0000 15.5550
26 2 0.0000 0.0200 0.0000 15.5550
27 1 3.0000 1.0630 3.6823 18.1475
28 2 0.0000 1.0830 3.6823 18.1475
29 3 -3.0000 0.0000 0.0000 17.5097
30 4 0.0000 0.0200 0.0000 17.5097
31 3 -3.0000 1.0630 3.6823 20.1022
32 4 0.0000 1.0830 3.6823 20.1022
33 1 3.0000 0.0000 0.0000 20.7400
34 2 0.0000 0.0200 0.0000 20.7400
35 1 3.0000 1.0630 3.6823 23.3325
36 2 0.0000 1.0830 3.6823 23.3325
37 3 -3.0000 0.0000 0.0000 22.6947
38 4 0.0000 0.0200 0.0000 22.6947
39 3 -3.0000 1.0630 3.6823 25.2872
40 4 0.0000 1.0830 3.6823 25.2872
41 1 3.0000 0.0000 5.5235 0.0000
42 2 0.0000 0.0200 5.5235 0.0000
43 1 3.0000 1.0630 9.2059 2.5925
44 2 0.0000 1.0830 9.2059 2.5925
45 3 -3.0000 0.0000 5.5235 1.9547
46 4 0.0000 0.0200 5.5235 1.9547
47 3 -3.0000 1.0630 9.2059 4.5472
48 4 0.0000 1.0830 9.2059 4.5472
49 1 3.0000 0.0000 5.5235 5.1850
50 2 0.0000 0.0200 5.5235 5.1850
51 1 3.0000 1.0630 9.2059 7.7775
52 2 0.0000 1.0830 9.2059 7.7775
53 3 -3.0000 0.0000 5.5235 7.1397
54 4 0.0000 0.0200 5.5235 7.1397
55 3 -3.0000 1.0630 9.2059 9.7322
56 4 0.0000 1.0830 9.2059 9.7322
57 1 3.0000 0.0000 5.5235 10.3700
58 2 0.0000 0.0200 5.5235 10.3700
59 1 3.0000 1.0630 9.2059 12.9625
60 2 0.0000 1.0830 9.2059 12.9625
61 3 -3.0000 0.0000 5.5235 12.3247
62 4 0.0000 0.0200 5.5235 12.3247
63 3 -3.0000 1.0630 9.2059 14.9172
64 4 0.0000 1.0830 9.2059 14.9172
65 1 3.0000 0.0000 5.5235 15.5550
66 2 0.0000 0.0200 5.5235 15.5550
67 1 3.0000 1.0630 9.2059 18.1475
68 2 0.0000 1.0830 9.2059 18.1475
69 3 -3.0000 0.0000 5.5235 17.5097
70 4 0.0000 0.0200 5.5235 17.5097
71 3 -3.0000 1.0630 9.2059 20.1022
72 4 0.0000 1.0830 9.2059 20.1022
73 1 3.0000 0.0000 5.5235 20.7400
74 2 0.0000 0.0200 5.5235 20.7400
75 1 3.0000 1.0630 9.2059 23.3325
76 2 0.0000 1.0830 9.2059 23.3325
77 3 -3.0000 0.0000 5.5235 22.6947
78 4 0.0000 0.0200 5.5235 22.6947
79 3 -3.0000 1.0630 9.2059 25.2872
80 4 0.0000 1.0830 9.2059 25.2872
81 1 3.0000 0.0000 11.0470 0.0000
82 2 0.0000 0.0200 11.0470 0.0000
83 1 3.0000 1.0630 14.7294 2.5925
84 2 0.0000 1.0830 14.7294 2.5925
85 3 -3.0000 0.0000 11.0470 1.9547
86 4 0.0000 0.0200 11.0470 1.9547
87 3 -3.0000 1.0630 14.7294 4.5472
88 4 0.0000 1.0830 14.7294 4.5472
89 1 3.0000 0.0000 11.0470 5.1850
90 2 0.0000 0.0200 11.0470 5.1850
91 1 3.0000 1.0630 14.7294 7.7775
92 2 0.0000 1.0830 14.7294 7.7775
93 3 -3.0000 0.0000 11.0470 7.1397
94 4 0.0000 0.0200 11.0470 7.1397
95 3 -3.0000 1.0630 14.7294 9.7322
96 4 0.0000 1.0830 14.7294 9.7322
97 1 3.0000 0.0000 11.0470 10.3700
98 2 0.0000 0.0200 11.0470 10.3700
99 1 3.0000 1.0630 14.7294 12.9625
100 2 0.0000 1.0830 14.7294 12.9625
101 3 -3.0000 0.0000 11.0470 12.3247
102 4 0.0000 0.0200 11.0470 12.3247
103 3 -3.0000 1.0630 14.7294 14.9172
104 4 0.0000 1.0830 14.7294 14.9172
105 1 3.0000 0.0000 11.0470 15.5550
106 2 0.0000 0.0200 11.0470 15.5550
107 1 3.0000 1.0630 14.7294 18.1475
108 2 0.0000 1.0830 14.7294 18.1475
109 3 -3.0000 0.0000 11.0470 17.5097
110 4 0.0000 0.0200 11.0470 17.5097
111 3 -3.0000 1.0630 14.7294 20.1022
112 4 0.0000 1.0830 14.7294 20.1022
113 1 3.0000 0.0000 11.0470 20.7400
114 2 0.0000 0.0200 11.0470 20.7400
115 1 3.0000 1.0630 14.7294 23.3325
116 2 0.0000 1.0830 14.7294 23.3325
117 3 -3.0000 0.0000 11.0470 22.6947
118 4 0.0000 0.0200 11.0470 22.6947
119 3 -3.0000 1.0630 14.7294 25.2872
120 4 0.0000 1.0830 14.7294 25.2872
121 1 3.0000 0.0000 16.5705 0.0000
122 2 0.0000 0.0200 16.5705 0.0000
123 1 3.0000 1.0630 20.2529 2.5925
124 2 0.0000 1.0830 20.2529 2.5925
125 3 -3.0000 0.0000 16.5705 1.9547
126 4 0.0000 0.0200 16.5705 1.9547
127 3 -3.0000 1.0630 20.2529 4.5472
128 4 0.0000 1.0830 20.2529 4.5472
129 1 3.0000 0.0000 16.5705 5.1850
130 2 0.0000 0.0200 16.5705 5.1850
131 1 3.0000 1.0630 20.2529 7.7775
132 2 0.0000 1.0830 20.2529 7.7775
133 3 -3.0000 0.0000 16.5705 7.1397
134 4 0.0000 0.0200 16.5705 7.1397
135 3 -3.0000 1.0630 20.2529 9.7322
136 4 0.0000 1.0830 20.2529 9.7322
137 1 3.0000 0.0000 16.5705 10.3700
138 2 0.0000 0.0200 16.5705 10.3700
139 1 3.0000 1.0630 20.2529 12.9625
140 2 0.0000 1.0830 20.2529 12.9625
141 3 -3.0000 0.0000 16.5705 12.3247
142 4 0.0000 0.0200 16.5705 12.3247
143 3 -3.0000 1.0630 20.2529 14.9172
144 4 0.0000 1.0830 20.2529 14.9172
145 1 3.0000 0.0000 16.5705 15.5550
146 2 0.0000 0.0200 16.5705 15.5550
147 1 3.0000 1.0630 20.2529 18.1475
148 2 0.0000 1.0830 20.2529 18.1475
149 3 -3.0000 0.0000 16.5705 17.5097
150 4 0.0000 0.0200 16.5705 17.5097
151 3 -3.0000 1.0630 20.2529 20.1022
152 4 0.0000 1.0830 20.2529 20.1022
153 1 3.0000 0.0000 16.5705 20.7400
154 2 0.0000 0.0200 16.5705 20.7400
155 1 3.0000 1.0630 20.2529 23.3325
156 2 0.0000 1.0830 20.2529 23.3325
157 3 -3.0000 0.0000 16.5705 22.6947
158 4 0.0000 0.0200 16.5705 22.6947
159 3 -3.0000 1.0630 20.2529 25.2872
160 4 0.0000 1.0830 20.2529 25.2872
161 1 3.0000 0.0000 22.0940 0.0000
162 2 0.0000 0.0200 22.0940 0.0000
163 1 3.0000 1.0630 25.7764 2.5925
164 2 0.0000 1.0830 25.7764 2.5925
165 3 -3.0000 0.0000 22.0940 1.9547
166 4 0.0000 0.0200 22.0940 1.9547
167 3 -3.0000 1.0630 25.7764 4.5472
168 4 0.0000 1.0830 25.7764 4.5472
169 1 3.0000 0.0000 22.0940 5.1850
170 2 0.0000 0.0200 22.0940 5.1850
171 1 3.0000 1.0630 25.7764 7.7775
172 2 0.0000 1.0830 25.7764 7.7775
173 3 -3.0000 0.0000 22.0940 7.1397
174 4 0.0000 0.0200 22.0940 7.1397
175 3 -3.0000 1.0630 25.7764 9.7322
176 4 0.0000 1.0830 25.7764 9.7322
177 1 3.0000 0.0000 22.0940 10.3700
178 2 0.0000 0.0200 22.0940 10.3700
179 1 3.0000 1.0630 25.7764 12.9625
180 2 0.0000 1.0830 25.7764 12.9625
181 3 -3.0000 0.0000 22.0940 12.3247
182 4 0.0000 0.0200 22.0940 12.3247
183 3 -3.0000 1.0630 25.7764 14.9172
184 4 0.0000 1.0830 25.7764 14.9172
185 1 3.0000 0.0000 22.0940 15.5550
186 2 0.0000 0.0200 22.0940 15.5550
187 1 3.0000 1.0630 25.7764 18.1475
188 2 0.0000 1.0830 25.7764 18.1475
189 3 -3.0000 0.0000 22.0940 17.5097
190 4 0.0000 0.0200 22.0940 17.5097
191 3 -3.0000 1.0630 25.7764 20.1022
192 4 0.0000 1.0830 25.7764 20.1022
193 1 3.0000 0.0000 22.0940 20.7400
194 2 0.0000 0.0200 22.0940 20.7400
195 1 3.0000 1.0630 25.7764 23.3325
196 2 0.0000 1.0830 25.7764 23.3325
197 3 -3.0000 0.0000 22.0940 22.6947
198 4 0.0000 0.0200 22.0940 22.6947
199 3 -3.0000 1.0630 25.7764 25.2872
200 4 0.0000 1.0830 25.7764 25.2872
201 1 3.0000 3.1890 0.0000 0.0000
202 2 0.0000 3.2090 0.0000 0.0000
203 1 3.0000 4.2520 3.6823 2.5925
204 2 0.0000 4.2720 3.6823 2.5925
205 3 -3.0000 3.1890 0.0000 1.9547
206 4 0.0000 3.2090 0.0000 1.9547
207 3 -3.0000 4.2520 3.6823 4.5472
208 4 0.0000 4.2720 3.6823 4.5472
209 1 3.0000 3.1890 0.0000 5.1850
210 2 0.0000 3.2090 0.0000 5.1850
211 1 3.0000 4.2520 3.6823 7.7775
212 2 0.0000 4.2720 3.6823 7.7775
213 3 -3.0000 3.1890 0.0000 7.1397
214 4 0.0000 3.2090 0.0000 7.1397
215 3 -3.0000 4.2520 3.6823 9.7322
216 4 0.0000 4.2720 3.6823 9.7322
217 1 3.0000 3.1890 0.0000 10.3700
218 2 0.0000 3.2090 0.0000 10.3700
219 1 3.0000 4.2520 3.6823 12.9625
220 2 0.0000 4.2720 3.6823 12.9625
221 3 -3.0000 3.1890 0.0000 12.3247
222 4 0.0000 3.2090 0.0000 12.3247
223 3 -3.0000 4.2520 3.6823 14.9172
224 4 0.0000 4.2720 3.6823 14.9172
225 1 3.0000 3.1890 0.0000 15.5550
226 2 0.0000 3.2090 0.0000 15.5550
227 1 3.0000 4.2520 3.6823 18.1475
228 2 0.0000 4.2720 3.6823 18.1475
229 3 -3.0000 3.1890 0.0000 17.5097
230 4 0.0000 3.2090 0.0000 17.5097
231 3 -3.0000 4.2520 3.6823 20.1022
232 4 0.0000 4.2720 3.6823 20.1022
233 1 3.0000 3.1890 0.0000 20.7400
234 2 0.0000 3.2090 0.0000 20.7400
235 1 3.0000 4.2520 3.6823 23.3325
236 2 0.0000 4.2720 3.6823 23.3325
237 3 -3.0000 3.1890 0.0000 22.6947
238 4 0.0000 3.2090 0.0000 22.6947
239 3 -3.0000 4.2520 3.6823 25.2872
240 4 0.0000 4.2720 3.6823 25.2872
241 1 3.0000 3.1890 5.5235 0.0000
242 2 0.0000 3.2090 5.5235 0.0000
243 1 3.0000 4.2520 9.2059 2.5925
244 2 0.0000 4.2720 9.2059 2.5925
245 3 -3.0000 3.1890 5.5235 1.9547
246 4 0.0000 3.2090 5.5235 1.9547
247 3 -3.0000 4.2520 9.2059 4.5472
248 4 0.0000 4.2720 9.2059 4.5472
249 1 3.0000 3.1890 5.5235 5.1850
250 2 0.0000 3.2090 5.5235 5.1850
251 1 3.0000 4.2520 9.2059 7.7775
252 2 0.0000 4.2720 9.2059 7.7775
253 3 -3.0000 3.1890 5.5235 7.1397
254 4 0.0000 3.2090 5.5235 7.1397
255 3 -3.0000 4.2520 9.2059 9.7322
256 4 0.0000 4.2720 9.2059 9.7322
257 1 3.0000 3.1890 5.5235 10.3700
258 2 0.0000 3.2090 5.5235 10.3700
259 1 3.0000 4.2520 9.2059 12.9625
260 2 0.0000 4.2720 9.2059 12.9625
261 3 -3.0000 3.1890 5.5235 12.3247
262 4 0.0000 3.2090 5.5235 12.3247
263 3 -3.0000 4.2520 9.2059 14.9172
264 4 0.0000 4.2720 9.2059 14.9172
265 1 3.0000 3.1890 5.5235 15.5550
266 2 0.0000 3.2090 5.5235 15.5550
267 1 3.0000 4.2520 9.2059 18.1475
268 2 0.0000 4.2720 9.2059 18.1475
269 3 -3.0000 3.1890 5.5235 17.5097
270 4 0.0000 3.2090 5.5235 17.5097
271 3 -3.0000 4.2520 9.2059 20.1022
272 4 0.0000 4.2720 9.2059 20.1022
273 1 3.0000 3.1890 5.5235 20.7400
274 2 0.0000 3.2090 5.5235 20.7400
275 1 3.0000 4.2520 9.2059 23.3325
276 2 0.0000 4.2720 9.2059 23.3325
277 3 -3.0000 3.1890 5.5235 22.6947
278 4 0.0000 3.2090 5.5235 22.6947
279 3 -3.0000 4.2520 9.2059 25.2872
280 4 0.0000 4.2720 9.2059 25.2872
281 1 3.0000 3.1890 11.0470 0.0000
282 2 0.0000 3.2090 11.0470 0.0000
283 1 3.0000 4.2520 14.7294 2.5925
284 2 0.0000 4.2720 14.7294 2.5925
285 3 -3.0000 3.1890 11.0470 1.9547
286 4 0.0000 3.2090 11.0470 1.9547
287 3 -3.0000 4.2520 14.7294 4.5472
288 4 0.0000 4.2720 14.7294 4.5472
289 1 3.0000 3.1890 11.0470 5.1850
290 2 0.0000 3.2090 11.0470 5.1850
291 1 3.0000 4.2520 14.7294 7.7775
292 2 0.0000 4.2720 14.7294 7.7775
293 3 -3.0000 3.1890 11.0470 7.1397
294 4 0.0000 3.2090 11.0470 7.1397
295 3 -3.0000 4.2520 14.7294 9.7322
296 4 0.0000 4.2720 14.7294 9.7322
297 1 3.0000 3.1890 11.0470 10.3700
298 2 0.0000 3.2090 11.0470 10.3700
299 1 3.0000 4.2520 14.7294 12.9625
300 2 0.0000 4.2720 14.7294 12.9625
301 3 -3.0000 3.1890 11.0470 12.3247
302 4 0.0000 3.2090 11.0470 12.3247
303 3 -3.0000 4.2520 14.7294 14.9172
304 4 0.0000 4.2720 14.7294 14.9172
305 1 3.0000 3.1890 11.0470 15.5550
306 2 0.0000 3.2090 11.0470 15.5550
307 1 3.0000 4.2520 14.7294 18.1475
308 2 0.0000 4.2720 14.7294 18.1475
309 3 -3.0000 3.1890 11.0470 17.5097
310 4 0.0000 3.2090 11.0470 17.5097
311 3 -3.0000 4.2520 14.7294 20.1022
312 4 0.0000 4.2720 14.7294 20.1022
313 1 3.0000 3.1890 11.0470 20.7400
314 2 0.0000 3.2090 11.0470 20.7400
315 1 3.0000 4.2520 14.7294 23.3325
316 2 0.0000 4.2720 14.7294 23.3325
317 3 -3.0000 3.1890 11.0470 22.6947
318 4 0.0000 3.2090 11.0470 22.6947
319 3 -3.0000 4.2520 14.7294 25.2872
320 4 0.0000 4.2720 14.7294 25.2872
321 1 3.0000 3.1890 16.5705 0.0000
322 2 0.0000 3.2090 16.5705 0.0000
323 1 3.0000 4.2520 20.2529 2.5925
324 2 0.0000 4.2720 20.2529 2.5925
325 3 -3.0000 3.1890 16.5705 1.9547
326 4 0.0000 3.2090 16.5705 1.9547
327 3 -3.0000 4.2520 20.2529 4.5472
328 4 0.0000 4.2720 20.2529 4.5472
329 1 3.0000 3.1890 16.5705 5.1850
330 2 0.0000 3.2090 16.5705 5.1850
331 1 3.0000 4.2520 20.2529 7.7775
332 2 0.0000 4.2720 20.2529 7.7775
333 3 -3.0000 3.1890 16.5705 7.1397
334 4 0.0000 3.2090 16.5705 7.1397
335 3 -3.0000 4.2520 20.2529 9.7322
336 4 0.0000 4.2720 20.2529 9.7322
337 1 3.0000 3.1890 16.5705 10.3700
338 2 0.0000 3.2090 16.5705 10.3700
339 1 3.0000 4.2520 20.2529 12.9625
340 2 0.0000 4.2720 20.2529 12.9625
341 3 -3.0000 3.1890 16.5705 12.3247
342 4 0.0000 3.2090 16.5705 12.3247
343 3 -3.0000 4.2520 20.2529 14.9172
344 4 0.0000 4.2720 20.2529 14.9172
345 1 3.0000 3.1890 16.5705 15.5550
346 2 0.0000 3.2090 16.5705 15.5550
347 1 3.0000 4.2520 20.2529 18.1475
348 2 0.0000 4.2720 20.2529 18.1475
349 3 -3.0000 3.1890 16.5705 17.5097
350 4 0.0000 3.2090 16.5705 17.5097
351 3 -3.0000 4.2520 20.2529 20.1022
352 4 0.0000 4.2720 20.2529 20.1022
353 1 3.0000 3.1890 16.5705 20.7400
354 2 0.0000 3.2090 16.5705 20.7400
355 1 3.0000 4.2520 20.2529 23.3325
356 2 0.0000 4.2720 20.2529 23.3325
357 3 -3.0000 3.1890 16.5705 22.6947
358 4 0.0000 3.2090 16.5705 22.6947
359 3 -3.0000 4.2520 20.2529 25.2872
360 4 0.0000 4.2720 20.2529 25.2872
361 1 3.0000 3.1890 22.0940 0.0000
362 2 0.0000 3.2090 22.0940 0.0000
363 1 3.0000 4.2520 25.7764 2.5925
364 2 0.0000 4.2720 25.7764 2.5925
365 3 -3.0000 3.1890 22.0940 1.9547
366 4 0.0000 3.2090 22.0940 1.9547
367 3 -3.0000 4.2520 25.7764 4.5472
368 4 0.0000 4.2720 25.7764 4.5472
369 1 3.0000 3.1890 22.0940 5.1850
370 2 0.0000 3.2090 22.0940 5.1850
371 1 3.0000 4.2520 25.7764 7.7775
372 2 0.0000 4.2720 25.7764 7.7775
373 3 -3.0000 3.1890 22.0940 7.1397
374 4 0.0000 3.2090 22.0940 7.1397
375 3 -3.0000 4.2520 25.7764 9.7322
376 4 0.0000 4.2720 25.7764 9.7322
377 1 3.0000 3.1890 22.0940 10.3700
378 2 0.0000 3.2090 22.0940 10.3700
379 1 3.0000 4.2520 25.7764 12.9625
380 2 0.0000 4.2720 25.7764 12.9625
381 3 -3.0000 3.1890 22.0940 12.3247
382 4 0.0000 3.2090 22.0940 12.3247
383 3 -3.0000 4.2520 25.7764 14.9172
384 4 0.0000 4.2720 25.7764 14.9172
385 1 3.0000 3.1890 22.0940 15.5550
386 2 0.0000 3.2090 22.0940 15.5550
387 1 3.0000 4.2520 25.7764 18.1475
388 2 0.0000 4.2720 25.7764 18.1475
389 3 -3.0000 3.1890 22.0940 17.5097
390 4 0.0000 3.2090 22.0940 17.5097
391 3 -3.0000 4.2520 25.7764 20.1022
392 4 0.0000 4.2720 25.7764 20.1022
393 1 3.0000 3.1890 22.0940 20.7400
394 2 0.0000 3.2090 22.0940 20.7400
395 1 3.0000 4.2520 25.7764 23.3325
396 2 0.0000 4.2720 25.7764 23.3325
397 3 -3.0000 3.1890 22.0940 22.6947
398 4 0.0000 3.2090 22.0940 22.6947
399 3 -3.0000 4.2520 25.7764 25.2872
400 4 0.0000 4.2720 25.7764 25.2872
401 1 3.0000 6.3780 0.0000 0.0000
402 2 0.0000 6.3980 0.0000 0.0000
403 1 3.0000 7.4410 3.6823 2.5925
404 2 0.0000 7.4610 3.6823 2.5925
405 3 -3.0000 6.3780 0.0000 1.9547
406 4 0.0000 6.3980 0.0000 1.9547
407 3 -3.0000 7.4410 3.6823 4.5472
408 4 0.0000 7.4610 3.6823 4.5472
409 1 3.0000 6.3780 0.0000 5.1850
410 2 0.0000 6.3980 0.0000 5.1850
411 1 3.0000 7.4410 3.6823 7.7775
412 2 0.0000 7.4610 3.6823 7.7775
413 3 -3.0000 6.3780 0.0000 7.1397
414 4 0.0000 6.3980 0.0000 7.1397
415 3 -3.0000 7.4410 3.6823 9.7322
416 4 0.0000 7.4610 3.6823 9.7322
417 1 3.0000 6.3780 0.0000 10.3700
418 2 0.0000 6.3980 0.0000 10.3700
419 1 3.0000 7.4410 3.6823 12.9625
420 2 0.0000 7.4610 3.6823 12.9625
421 3 -3.0000 6.3780 0.0000 12.3247
422 4 0.0000 6.3980 0.0000 12.3247
423 3 -3.0000 7.4410 3.6823 14.9172
424 4 0.0000 7.4610 3.6823 14.9172
425 1 3.0000 6.3780 0.0000 15.5550
426 2 0.0000 6.3980 0.0000 15.5550
427 1 3.0000 7.4410 3.6823 18.1475
428 2 0.0000 7.4610 3.6823 18.1475
429 3 -3.0000 6.3780 0.0000 17.5097
430 4 0.0000 6.3980 0.0000 17.5097
431 3 -3.0000 7.4410 3.6823 20.1022
432 4 0.0000 7.4610 3.6823 20.1022
433 1 3.0000 6.3780 0.0000 20.7400
434 2 0.0000 6.3980 0.0000 20.7400
435 1 3.0000 7.4410 3.6823 23.3325
436 2 0.0000 7.4610 3.6823 23.3325
437 3 -3.0000 6.3780 0.0000 22.6947
438 4 0.0000 6.3980 0.0000 22.6947
439 3 -3.0000 7.4410 3.6823 25.2872
440 4 0.0000 7.4610 3.6823 25.2872
441 1 3.0000 6.3780 5.5235 0.0000
442 2 0.0000 6.3980 5.5235 0.0000
443 1 3.0000 7.4410 9.2059 2.5925
444 2 0.0000 7.4610 9.2059 2.5925
445 3 -3.0000 6.3780 5.5235 1.9547
446 4 0.0000 6.3980 5.5235 1.9547
447 3 -3.0000 7.4410 9.2059 4.5472
448 4 0.0000 7.4610 9.2059 4.5472
449 1 3.0000 6.3780 5.5235 5.1850
450 2 0.0000 6.3980 5.5235 5.1850
451 1 3.0000 7.4410 9.2059 7.7775
452 2 0.0000 7.4610 9.2059 7.7775
453 3 -3.0000 6.3780 5.5235 7.1397
454 4 0.0000 6.3980 5.5235 7.1397
455 3 -3.0000 7.4410 9.2059 9.7322
456 4 0.0000 7.4610 9.2059 9.7322
457 1 3.0000 6.3780 5.5235 10.3700
458 2 0.0000 6.3980 5.5235 10.3700
459 1 3.0000 7.4410 9.2059 12.9625
460 2 0.0000 7.4610 9.2059 12.9625
461 3 -3.0000 6.3780 5.5235 12.3247
462 4 0.0000 6.3980 5.5235 12.3247
463 3 -3.0000 7.4410 9.2059 14.9172
464 4 0.0000 7.4610 9.2059 14.9172
465 1 3.0000 6.3780 5.5235 15.5550
466 2 0.0000 6.3980 5.5235 15.5550
467 1 3.0000 7.4410 9.2059 18.1475
468 2 0.0000 7.4610 9.2059 18.1475
469 3 -3.0000 6.3780 5.5235 17.5097
470 4 0.0000 6.3980 5.5235 17.5097
471 3 -3.0000 7.4410 9.2059 20.1022
472 4 0.0000 7.4610 9.2059 20.1022
473 1 3.0000 6.3780 5.5235 20.7400
474 2 0.0000 6.3980 5.5235 20.7400
475 1 3.0000 7.4410 9.2059 23.3325
476 2 0.0000 7.4610 9.2059 23.3325
477 3 -3.0000 6.3780 5.5235 22.6947
478 4 0.0000 6.3980 5.5235 22.6947
479 3 -3.0000 7.4410 9.2059 25.2872
480 4 0.0000 7.4610 9.2059 25.2872
481 1 3.0000 6.3780 11.0470 0.0000
482 2 0.0000 6.3980 11.0470 0.0000
483 1 3.0000 7.4410 14.7294 2.5925
484 2 0.0000 7.4610 14.7294 2.5925
485 3 -3.0000 6.3780 11.0470 1.9547
486 4 0.0000 6.3980 11.0470 1.9547
487 3 -3.0000 7.4410 14.7294 4.5472
488 4 0.0000 7.4610 14.7294 4.5472
489 1 3.0000 6.3780 11.0470 5.1850
490 2 0.0000 6.3980 11.0470 5.1850
491 1 3.0000 7.4410 14.7294 7.7775
492 2 0.0000 7.4610 14.7294 7.7775
493 3 -3.0000 6.3780 11.0470 7.1397
494 4 0.0000 6.3980 11.0470 7.1397
495 3 -3.0000 7.4410 14.7294 9.7322
496 4 0.0000 7.4610 14.7294 9.7322
497 1 3.0000 6.3780 11.0470 10.3700
498 2 0.0000 6.3980 11.0470 10.3700
499 1 3.0000 7.4410 14.7294 12.9625
500 2 0.0000 7.4610 14.7294 12.9625
501 3 -3.0000 6.3780 11.0470 12.3247
502 4 0.0000 6.3980 11.0470 12.3247
503 3 -3.0000 7.4410 14.7294 14.9172
504 4 0.0000 7.4610 14.7294 14.9172
505 1 3.0000 6.3780 11.0470 15.5550
506 2 0.0000 6.3980 11.0470 15.5550
507 1 3.0000 7.4410 14.7294 18.1475
508 2 0.0000 7.4610 14.7294 18.1475
509 3 -3.0000 6.3780 11.0470 17.5097
510 4 0.0000 6.3980 11.0470 17.5097
511 3 -3.0000 7.4410 14.7294 20.1022
512 4 0.0000 7.4610 14.7294 20.1022
513 1 3.0000 6.3780 11.0470 20.7400
514 2 0.0000 6.3980 11.0470 20.7400
515 1 3.0000 7.4410 14.7294 23.3325
516 2 0.0000 7.4610 14.7294 23.3325
517 3 -3.0000 6.3780 11.0470 22.6947
518 4 0.0000 6.3980 11.0470 22.6947
519 3 -3.0000 7.4410 14.7294 25.2872
520 4 0.0000 7.4610 14.7294 25.2872
521 1 3.0000 6.3780 16.5705 0.0000
522 2 0.0000 6.3980 16.5705 0.0000
523 1 3.0000 7.4410 20.2529 2.5925
524 2 0.0000 7.4610 20.2529 2.5925
525 3 -3.0000 6.3780 16.5705 1.9547
526 4 0.0000 6.3980 16.5705 1.9547
527 3 -3.0000 7.4410 20.2529 4.5472
528 4 0.0000 7.4610 20.2529 4.5472
529 1 3.0000 6.3780 16.5705 5.1850
530 2 0.0000 6.3980 16.5705 5.1850
531 1 3.0000 7.4410 20.2529 7.7775
532 2 0.0000 7.4610 20.2529 7.7775
533 3 -3.0000 6.3780 16.5705 7.1397
534 4 0.0000 6.3980 16.5705 7.1397
535 3 -3.0000 7.4410 20.2529 9.7322
536 4 0.0000 7.4610 20.2529 9.7322
537 1 3.0000 6.3780 16.5705 10.3700
538 2 0.0000 6.3980 16.5705 10.3700
539 1 3.0000 7.4410 20.2529 12.9625
540 2 0.0000 7.4610 20.2529 12.9625
541 3 -3.0000 6.3780 16.5705 12.3247
542 4 0.0000 6.3980 16.5705 12.3247
543 3 -3.0000 7.4410 20.2529 14.9172
544 4 0.0000 7.4610 20.2529 14.9172
545 1 3.0000 6.3780 16.5705 15.5550
546 2 0.0000 6.3980 16.5705 15.5550
547 1 3.0000 7.4410 20.2529 18.1475
548 2 0.0000 7.4610 20.2529 18.1475
549 3 -3.0000 6.3780 16.5705 17.5097
550 4 0.0000 6.3980 16.5705 17.5097
551 3 -3.0000 7.4410 20.2529 20.1022
552 4 0.0000 7.4610 20.2529 20.1022
553 1 3.0000 6.3780 16.5705 20.7400
554 2 0.0000 6.3980 16.5705 20.7400
555 1 3.0000 7.4410 20.2529 23.3325
556 2 0.0000 7.4610 20.2529 23.3325
557 3 -3.0000 6.3780 16.5705 22.6947
558 4 0.0000 6.3980 16.5705 22.6947
559 3 -3.0000 7.4410 20.2529 25.2872
560 4 0.0000 7.4610 20.2529 25.2872
561 1 3.0000 6.3780 22.0940 0.0000
562 2 0.0000 6.3980 22.0940 0.0000
563 1 3.0000 7.4410 25.7764 2.5925
564 2 0.0000 7.4610 25.7764 2.5925
565 3 -3.0000 6.3780 22.0940 1.9547
566 4 0.0000 6.3980 22.0940 1.9547
567 3 -3.0000 7.4410 25.7764 4.5472
568 4 0.0000 7.4610 25.7764 4.5472
569 1 3.0000 6.3780 22.0940 5.1850
570 2 0.0000 6.3980 22.0940 5.1850
571 1 3.0000 7.4410 25.7764 7.7775
572 2 0.0000 7.4610 25.7764 7.7775
573 3 -3.0000 6.3780 22.0940 7.1397
574 4 0.0000 6.3980 22.0940 7.1397
575 3 -3.0000 7.4410 25.7764 9.7322
576 4 0.0000 7.4610 25.7764 9.7322
577 1 3.0000 6.3780 22.0940 10.3700
578 2 0.0000 6.3980 22.0940 10.3700
579 1 3.0000 7.4410 25.7764 12.9625
580 2 0.0000 7.4610 25.7764 12.9625
581 3 -3.0000 6.3780 22.0940 12.3247
582 4 0.0000 6.3980 22.0940 12.3247
583 3 -3.0000 7.4410 25.7764 14.9172
584 4 0.0000 7.4610 25.7764 14.9172
585 1 3.0000 6.3780 22.0940 15.5550
586 2 0.0000 6.3980 22.0940 15.5550
587 1 3.0000 7.4410 25.7764 18.1475
588 2 0.0000 7.4610 25.7764 18.1475
589 3 -3.0000 6.3780 22.0940 17.5097
590 4 0.0000 6.3980 22.0940 17.5097
591 3 -3.0000 7.4410 25.7764 20.1022
592 4 0.0000 7.4610 25.7764 20.1022
593 1 3.0000 6.3780 22.0940 20.7400
594 2 0.0000 6.3980 22.0940 20.7400
595 1 3.0000 7.4410 25.7764 23.3325
596 2 0.0000 7.4610 25.7764 23.3325
597 3 -3.0000 6.3780 22.0940 22.6947
598 4 0.0000 6.3980 22.0940 22.6947
599 3 -3.0000 7.4410 25.7764 25.2872
600 4 0.0000 7.4610 25.7764 25.2872
601 1 3.0000 9.5670 0.0000 0.0000
602 2 0.0000 9.5870 0.0000 0.0000
603 1 3.0000 10.6300 3.6823 2.5925
604 2 0.0000 10.6500 3.6823 2.5925
605 3 -3.0000 9.5670 0.0000 1.9547
606 4 0.0000 9.5870 0.0000 1.9547
607 3 -3.0000 10.6300 3.6823 4.5472
608 4 0.0000 10.6500 3.6823 4.5472
609 1 3.0000 9.5670 0.0000 5.1850
610 2 0.0000 9.5870 0.0000 5.1850
611 1 3.0000 10.6300 3.6823 7.7775
612 2 0.0000 10.6500 3.6823 7.7775
613 3 -3.0000 9.5670 0.0000 7.1397
614 4 0.0000 9.5870 0.0000 7.1397
615 3 -3.0000 10.6300 3.6823 9.7322
616 4 0.0000 10.6500 3.6823 9.7322
617 1 3.0000 9.5670 0.0000 10.3700
618 2 0.0000 9.5870 0.0000 10.3700
619 1 3.0000 10.6300 3.6823 12.9625
620 2 0.0000 10.6500 3.6823 12.9625
621 3 -3.0000 9.5670 0.0000 12.3247
622 4 0.0000 9.5870 0.0000 12.3247
623 3 -3.0000 10.6300 3.6823 14.9172
624 4 0.0000 10.6500 3.6823 14.9172
625 1 3.0000 9.5670 0.0000 15.5550
626 2 0.0000 9.5870 0.0000 15.5550
627 1 3.0000 10.6300 3.6823 18.1475
628 2 0.0000 10.6500 3.6823 18.1475
629 3 -3.0000 9.5670 0.0000 17.5097
630 4 0.0000 9.5870 0.0000 17.5097
631 3 -3.0000 10.6300 3.6823 20.1022
632 4 0.0000 10.6500 3.6823 20.1022
633 1 3.0000 9.5670 0.0000 20.7400
634 2 0.0000 9.5870 0.0000 20.7400
635 1 3.0000 10.6300 3.6823 23.3325
636 2 0.0000 10.6500 3.6823 23.3325
637 3 -3.0000 9.5670 0.0000 22.6947
638 4 0.0000 9.5870 0.0000 22.6947
639 3 -3.0000 10.6300 3.6823 25.2872
640 4 0.0000 10.6500 3.6823 25.2872
641 1 3.0000 9.5670 5.5235 0.0000
642 2 0.0000 9.5870 5.5235 0.0000
643 1 3.0000 10.6300 9.2059 2.5925
644 2 0.0000 10.6500 9.2059 2.5925
645 3 -3.0000 9.5670 5.5235 1.9547
646 4 0.0000 9.5870 5.5235 1.9547
647 3 -3.0000 10.6300 9.2059 4.5472
648 4 0.0000 10.6500 9.2059 4.5472
649 1 3.0000 9.5670 5.5235 5.1850
650 2 0.0000 9.5870 5.5235 5.1850
651 1 3.0000 10.6300 9.2059 7.7775
652 2 0.0000 10.6500 9.2059 7.7775
653 3 -3.0000 9.5670 5.5235 7.1397
654 4 0.0000 9.5870 5.5235 7.1397
655 3 -3.0000 10.6300 9.2059 9.7322
656 4 0.0000 10.6500 9.2059 9.7322
657 1 3.0000 9.5670 5.5235 10.3700
658 2 0.0000 9.5870 5.5235 10.3700
659 1 3.0000 10.6300 9.2059 12.9625
660 2 0.0000 10.6500 9.2059 12.9625
661 3 -3.0000 9.5670 5.5235 12.3247
662 4 0.0000 9.5870 5.5235 12.3247
663 3 -3.0000 10.6300 9.2059 14.9172
664 4 0.0000 10.6500 9.2059 14.9172
665 1 3.0000 9.5670 5.5235 15.5550
666 2 0.0000 9.5870 5.5235 15.5550
667 1 3.0000 10.6300 9.2059 18.1475
668 2 0.0000 10.6500 9.2059 18.1475
669 3 -3.0000 9.5670 5.5235 17.5097
670 4 0.0000 9.5870 5.5235 17.5097
671 3 -3.0000 10.6300 9.2059 20.1022
672 4 0.0000 10.6500 9.2059 20.1022
673 1 3.0000 9.5670 5.5235 20.7400
674 2 0.0000 9.5870 5.5235 20.7400
675 1 3.0000 10.6300 9.2059 23.3325
676 2 0.0000 10.6500 9.2059 23.3325
677 3 -3.0000 9.5670 5.5235 22.6947
678 4 0.0000 9.5870 5.5235 22.6947
679 3 -3.0000 10.6300 9.2059 25.2872
680 4 0.0000 10.6500 9.2059 25.2872
681 1 3.0000 9.5670 11.0470 0.0000
682 2 0.0000 9.5870 11.0470 0.0000
683 1 3.0000 10.6300 14.7294 2.5925
684 2 0.0000 10.6500 14.7294 2.5925
685 3 -3.0000 9.5670 11.0470 1.9547
686 4 0.0000 9.5870 11.0470 1.9547
687 3 -3.0000 10.6300 14.7294 4.5472
688 4 0.0000 10.6500 14.7294 4.5472
689 1 3.0000 9.5670 11.0470 5.1850
690 2 0.0000 9.5870 11.0470 5.1850
691 1 3.0000 10.6300 14.7294 7.7775
692 2 0.0000 10.6500 14.7294 7.7775
693 3 -3.0000 9.5670 11.0470 7.1397
694 4 0.0000 9.5870 11.0470 7.1397
695 3 -3.0000 10.6300 14.7294 9.7322
696 4 0.0000 10.6500 14.7294 9.7322
697 1 3.0000 9.5670 11.0470 10.3700
698 2 0.0000 9.5870 11.0470 10.3700
699 1 3.0000 10.6300 14.7294 12.9625
700 2 0.0000 10.6500 14.7294 12.9625
701 3 -3.0000 9.5670 11.0470 12.3247
702 4 0.0000 9.5870 11.0470 12.3247
703 3 -3.0000 10.6300 14.7294 14.9172
704 4 0.0000 10.6500 14.7294 14.9172
705 1 3.0000 9.5670 11.0470 15.5550
706 2 0.0000 9.5870 11.0470 15.5550
707 1 3.0000 10.6300 14.7294 18.1475
708 2 0.0000 10.6500 14.7294 18.1475
709 3 -3.0000 9.5670 11.0470 17.5097
710 4 0.0000 9.5870 11.0470 17.5097
711 3 -3.0000 10.6300 14.7294 20.1022
712 4 0.0000 10.6500 14.7294 20.1022
713 1 3.0000 9.5670 11.0470 20.7400
714 2 0.0000 9.5870 11.0470 20.7400
715 1 3.0000 10.6300 14.7294 23.3325
716 2 0.0000 10.6500 14.7294 23.3325
717 3 -3.0000 9.5670 11.0470 22.6947
718 4 0.0000 9.5870 11.0470 22.6947
719 3 -3.0000 10.6300 14.7294 25.2872
720 4 0.0000 10.6500 14.7294 25.2872
721 1 3.0000 9.5670 16.5705 0.0000
722 2 0.0000 9.5870 16.5705 0.0000
723 1 3.0000 10.6300 20.2529 2.5925
724 2 0.0000 10.6500 20.2529 2.5925
725 3 -3.0000 9.5670 16.5705 1.9547
726 4 0.0000 9.5870 16.5705 1.9547
727 3 -3.0000 10.6300 20.2529 4.5472
728 4 0.0000 10.6500 20.2529 4.5472
729 1 3.0000 9.5670 16.5705 5.1850
730 2 0.0000 9.5870 16.5705 5.1850
731 1 3.0000 10.6300 20.2529 7.7775
732 2 0.0000 10.6500 20.2529 7.7775
733 3 -3.0000 9.5670 16.5705 7.1397
734 4 0.0000 9.5870 16.5705 7.1397
735 3 -3.0000 10.6300 20.2529 9.7322
736 4 0.0000 10.6500 20.2529 9.7322
737 1 3.0000 9.5670 16.5705 10.3700
738 2 0.0000 9.5870 16.5705 10.3700
739 1 3.0000 10.6300 20.2529 12.9625
740 2 0.0000 10.6500 20.2529 12.9625
741 3 -3.0000 9.5670 16.5705 12.3247
742 4 0.0000 9.5870 16.5705 12.3247
743 3 -3.0000 10.6300 20.2529 14.9172
744 4 0.0000 10.6500 20.2529 14.9172
745 1 3.0000 9.5670 16.5705 15.5550
746 2 0.0000 9.5870 16.5705 15.5550
747 1 3.0000 10.6300 20.2529 18.1475
748 2 0.0000 10.6500 20.2529 18.1475
749 3 -3.0000 9.5670 16.5705 17.5097
750 4 0.0000 9.5870 16.5705 17.5097
751 3 -3.0000 10.6300 20.2529 20.1022
752 4 0.0000 10.6500 20.2529 20.1022
753 1 3.0000 9.5670 16.5705 20.7400
754 2 0.0000 9.5870 16.5705 20.7400
755 1 3.0000 10.6300 20.2529 23.3325
756 2 0.0000 10.6500 20.2529 23.3325
757 3 -3.0000 9.5670 16.5705 22.6947
758 4 0.0000 9.5870 16.5705 22.6947
759 3 -3.0000 10.6300 20.2529 25.2872
760 4 0.0000 10.6500 20.2529 25.2872
761 1 3.0000 9.5670 22.0940 0.0000
762 2 0.0000 9.5870 22.0940 0.0000
763 1 3.0000 10.6300 25.7764 2.5925
764 2 0.0000 10.6500 25.7764 2.5925
765 3 -3.0000 9.5670 22.0940 1.9547
766 4 0.0000 9.5870 22.0940 1.9547
767 3 -3.0000 10.6300 25.7764 4.5472
768 4 0.0000 10.6500 25.7764 4.5472
769 1 3.0000 9.5670 22.0940 5.1850
770 2 0.0000 9.5870 22.0940 5.1850
771 1 3.0000 10.6300 25.7764 7.7775
772 2 0.0000 10.6500 25.7764 7.7775
773 3 -3.0000 9.5670 22.0940 7.1397
774 4 0.0000 9.5870 22.0940 7.1397
775 3 -3.0000 10.6300 25.7764 9.7322
776 4 0.0000 10.6500 25.7764 9.7322
777 1 3.0000 9.5670 22.0940 10.3700
778 2 0.0000 9.5870 22.0940 10.3700
779 1 3.0000 10.6300 25.7764 12.9625
780 2 0.0000 10.6500 25.7764 12.9625
781 3 -3.0000 9.5670 22.0940 12.3247
782 4 0.0000 9.5870 22.0940 12.3247
783 3 -3.0000 10.6300 25.7764 14.9172
784 4 0.0000 10.6500 25.7764 14.9172
785 1 3.0000 9.5670 22.0940 15.5550
786 2 0.0000 9.5870 22.0940 15.5550
787 1 3.0000 10.6300 25.7764 18.1475
788 2 0.0000 10.6500 25.7764 18.1475
789 3 -3.0000 9.5670 22.0940 17.5097
790 4 0.0000 9.5870 22.0940 17.5097
791 3 -3.0000 10.6300 25.7764 20.1022
792 4 0.0000 10.6500 25.7764 20.1022
793 1 3.0000 9.5670 22.0940 20.7400
794 2 0.0000 9.5870 22.0940 20.7400
795 1 3.0000 10.6300 25.7764 23.3325
796 2 0.0000 10.6500 25.7764 23.3325
797 3 -3.0000 9.5670 22.0940 22.6947
798 4 0.0000 9.5870 22.0940 22.6947
799 3 -3.0000 10.6300 25.7764 25.2872
800 4 0.0000 10.6500 25.7764 25.2872
801 1 3.0000 12.7560 0.0000 0.0000
802 2 0.0000 12.7760 0.0000 0.0000
803 1 3.0000 13.8190 3.6823 2.5925
804 2 0.0000 13.8390 3.6823 2.5925
805 3 -3.0000 12.7560 0.0000 1.9547
806 4 0.0000 12.7760 0.0000 1.9547
807 3 -3.0000 13.8190 3.6823 4.5472
808 4 0.0000 13.8390 3.6823 4.5472
809 1 3.0000 12.7560 0.0000 5.1850
810 2 0.0000 12.7760 0.0000 5.1850
811 1 3.0000 13.8190 3.6823 7.7775
812 2 0.0000 13.8390 3.6823 7.7775
813 3 -3.0000 12.7560 0.0000 7.1397
814 4 0.0000 12.7760 0.0000 7.1397
815 3 -3.0000 13.8190 3.6823 9.7322
816 4 0.0000 13.8390 3.6823 9.7322
817 1 3.0000 12.7560 0.0000 10.3700
818 2 0.0000 12.7760 0.0000 10.3700
819 1 3.0000 13.8190 3.6823 12.9625
820 2 0.0000 13.8390 3.6823 12.9625
821 3 -3.0000 12.7560 0.0000 12.3247
822 4 0.0000 12.7760 0.0000 12.3247
823 3 -3.0000 13.8190 3.6823 14.9172
824 4 0.0000 13.8390 3.6823 14.9172
825 1 3.0000 12.7560 0.0000 15.5550
826 2 0.0000 12.7760 0.0000 15.5550
827 1 3.0000 13.8190 3.6823 18.1475
828 2 0.0000 13.8390 3.6823 18.1475
829 3 -3.0000 12.7560 0.0000 17.5097
830 4 0.0000 12.7760 0.0000 17.5097
831 3 -3.0000 13.8190 3.6823 20.1022
832 4 0.0000 13.8390 3.6823 20.1022
833 1 3.0000 12.7560 0.0000 20.7400
834 2 0.0000 12.7760 0.0000 20.7400
835 1 3.0000 13.8190 3.6823 23.3325
836 2 0.0000 13.8390 3.6823 23.3325
837 3 -3.0000 12.7560 0.0000 22.6947
838 4 0.0000 12.7760 0.0000 22.6947
839 3 -3.0000 13.8190 3.6823 25.2872
840 4 0.0000 13.8390 3.6823 25.2872