ITEM: TIMESTEP
16000
ITEM: NUMBER OF ATOMS
14121
ITEM: BOX BOUNDS ss ss ss
-6.3755115604867221e+01 5.2774572227050805e+02
-1.0231754111503553e+00 3.5246059107720036e+01
-6.3740679304184425e+01 3.8124484076755459e+02
ITEM: ATOMS id type x y z
1 1 -63.7597 0 -63.7597
3 1 -60.5707 0 -63.7597
5 1 -57.3817 0 -63.7597
7 1 -54.1927 0 -63.7597
9 1 -51.0037 0 -63.7597
11 1 -47.8147 0 -63.7597
13 1 -44.6257 0 -63.7597
15 1 -41.4367 0 -63.7597
17 1 -38.2477 0 -63.7597
19 1 -35.0587 0 -63.7597
21 1 -31.8697 0 -63.7597
23 1 -28.6807 0 -63.7597
25 1 -25.4917 0 -63.7597
27 1 -22.3027 0 -63.7597
29 1 -19.1137 0 -63.7597
31 1 -15.9247 0 -63.7597
33 1 -12.7357 0 -63.7597
35 1 -9.54667 0 -63.7597
37 1 -6.35767 0 -63.7597
39 1 -3.16867 0 -63.7597
41 1 0.0203322 0 -63.7597
43 1 3.20933 0 -63.7597
45 1 6.39833 0 -63.7597
47 1 9.58733 0 -63.7597
49 1 12.7763 0 -63.7597
51 1 15.9653 0 -63.7597
53 1 19.1543 0 -63.7597
55 1 22.3433 0 -63.7597
57 1 25.5323 0 -63.7597
59 1 28.7213 0 -63.7597
61 1 31.9103 0 -63.7597
63 1 35.0993 0 -63.7597
65 1 38.2883 0 -63.7597
67 1 41.4773 0 -63.7597
69 1 44.6663 0 -63.7597
71 1 47.8553 0 -63.7597
73 1 51.0443 0 -63.7597
75 1 54.2333 0 -63.7597
77 1 57.4223 0 -63.7597
79 1 60.6113 0 -63.7597
81 1 63.8003 0 -63.7597
83 1 66.9893 0 -63.7597
85 1 70.1783 0 -63.7597
87 1 73.3673 0 -63.7597
89 1 76.5563 0 -63.7597
91 1 79.7453 0 -63.7597
93 1 82.9343 0 -63.7597
95 1 86.1233 0 -63.7597
97 1 89.3123 0 -63.7597
99 1 92.5013 0 -63.7597
101 1 95.6903 0 -63.7597
103 1 98.8793 0 -63.7597
105 1 102.068 0 -63.7597
107 1 105.257 0 -63.7597
109 1 108.446 0 -63.7597
111 1 111.635 0 -63.7597
113 1 114.824 0 -63.7597
115 1 118.013 0 -63.7597
117 1 121.202 0 -63.7597
119 1 124.391 0 -63.7597
121 1 127.58 0 -63.7597
123 1 130.769 0 -63.7597
125 1 133.958 0 -63.7597
127 1 137.147 0 -63.7597
129 1 140.336 0 -63.7597
131 1 143.525 0 -63.7597
133 1 146.714 0 -63.7597
135 1 -62.1652 2.76176 -63.7597
137 1 -58.9762 2.76176 -63.7597
139 1 -55.7872 2.76176 -63.7597
141 1 -52.5982 2.76176 -63.7597
143 1 -49.4092 2.76176 -63.7597
145 1 -46.2202 2.76176 -63.7597
147 1 -43.0312 2.76176 -63.7597
149 1 -39.8422 2.76176 -63.7597
151 1 -36.6532 2.76176 -63.7597
153 1 -33.4642 2.76176 -63.7597
155 1 -30.2752 2.76176 -63.7597
157 1 -27.0862 2.76176 -63.7597
159 1 -23.8972 2.76176 -63.7597
161 1 -20.7082 2.76176 -63.7597
163 1 -17.5192 2.76176 -63.7597
165 1 -14.3302 2.76176 -63.7597
167 1 -11.1412 2.76176 -63.7597
169 1 -7.95217 2.76176 -63.7597
171 1 -4.76317 2.76176 -63.7597
173 1 -1.57417 2.76176 -63.7597
175 1 1.61483 2.76176 -63.7597
177 1 4.80383 2.76176 -63.7597
179 1 7.99283 2.76176 -63.7597
181 1 11.1818 2.76176 -63.7597
183 1 14.3708 2.76176 -63.7597
185 1 17.5598 2.76176 -63.7597
187 1 20.7488 2.76176 -63.7597
189 1 23.9378 2.76176 -63.7597
191 1 27.1268 2.76176 -63.7597
193 1 30.3158 2.76176 -63.7597
195 1 33.5048 2.76176 -63.7597
197 1 36.6938 2.76176 -63.7597
199 1 39.8828 2.76176 -63.7597
201 1 43.0718 2.76176 -63.7597
203 1 46.2608 2.76176 -63.7597
205 1 49.4498 2.76176 -63.7597
207 1 52.6388 2.76176 -63.7597
209 1 55.8278 2.76176 -63.7597
211 1 59.0168 2.76176 -63.7597
213 1 62.2058 2.76176 -63.7597
215 1 65.3948 2.76176 -63.7597
217 1 68.5838 2.76176 -63.7597
219 1 71.7728 2.76176 -63.7597
221 1 74.9618 2.76176 -63.7597
223 1 78.1508 2.76176 -63.7597
225 1 81.3398 2.76176 -63.7597
227 1 84.5288 2.76176 -63.7597
229 1 87.7178 2.76176 -63.7597
231 1 90.9068 2.76176 -63.7597
233 1 94.0958 2.76176 -63.7597
235 1 97.2848 2.76176 -63.7597
237 1 100.474 2.76176 -63.7597
239 1 103.663 2.76176 -63.7597
241 1 106.852 2.76176 -63.7597
243 1 110.041 2.76176 -63.7597
245 1 113.23 2.76176 -63.7597
247 1 116.419 2.76176 -63.7597
249 1 119.608 2.76176 -63.7597
251 1 122.797 2.76176 -63.7597
253 1 125.986 2.76176 -63.7597
255 1 129.175 2.76176 -63.7597
257 1 132.364 2.76176 -63.7597
259 1 135.553 2.76176 -63.7597
261 1 138.742 2.76176 -63.7597
263 1 141.931 2.76176 -63.7597
265 1 145.12 2.76176 -63.7597
266 1 -63.7597 5.52351 -63.7597
268 1 -60.5707 5.52351 -63.7597
270 1 -57.3817 5.52351 -63.7597
272 1 -54.1927 5.52351 -63.7597
274 1 -51.0037 5.52351 -63.7597
276 1 -47.8147 5.52351 -63.7597
278 1 -44.6257 5.52351 -63.7597
280 1 -41.4367 5.52351 -63.7597
282 1 -38.2477 5.52351 -63.7597
284 1 -35.0587 5.52351 -63.7597
286 1 -31.8697 5.52351 -63.7597
288 1 -28.6807 5.52351 -63.7597
290 1 -25.4917 5.52351 -63.7597
292 1 -22.3027 5.52351 -63.7597
294 1 -19.1137 5.52351 -63.7597
296 1 -15.9247 5.52351 -63.7597
298 1 -12.7357 5.52351 -63.7597
300 1 -9.54667 5.52351 -63.7597
302 1 -6.35767 5.52351 -63.7597
304 1 -3.16867 5.52351 -63.7597
306 1 0.0203322 5.52351 -63.7597
308 1 3.20933 5.52351 -63.7597
310 1 6.39833 5.52351 -63.7597
312 1 9.58733 5.52351 -63.7597
314 1 12.7763 5.52351 -63.7597
316 1 15.9653 5.52351 -63.7597
318 1 19.1543 5.52351 -63.7597
320 1 22.3433 5.52351 -63.7597
322 1 25.5323 5.52351 -63.7597
324 1 28.7213 5.52351 -63.7597
326 1 31.9103 5.52351 -63.7597
328 1 35.0993 5.52351 -63.7597
330 1 38.2883 5.52351 -63.7597
332 1 41.4773 5.52351 -63.7597
334 1 44.6663 5.52351 -63.7597
336 1 47.8553 5.52351 -63.7597
338 1 51.0443 5.52351 -63.7597
340 1 54.2333 5.52351 -63.7597
342 1 57.4223 5.52351 -63.7597
344 1 60.6113 5.52351 -63.7597
346 1 63.8003 5.52351 -63.7597
348 1 66.9893 5.52351 -63.7597
350 1 70.1783 5.52351 -63.7597
352 1 73.3673 5.52351 -63.7597
354 1 76.5563 5.52351 -63.7597
356 1 79.7453 5.52351 -63.7597
358 1 82.9343 5.52351 -63.7597
360 1 86.1233 5.52351 -63.7597
362 1 89.3123 5.52351 -63.7597
364 1 92.5013 5.52351 -63.7597
366 1 95.6903 5.52351 -63.7597
368 1 98.8793 5.52351 -63.7597
370 1 102.068 5.52351 -63.7597
372 1 105.257 5.52351 -63.7597
374 1 108.446 5.52351 -63.7597
376 1 111.635 5.52351 -63.7597
378 1 114.824 5.52351 -63.7597
380 1 118.013 5.52351 -63.7597
382 1 121.202 5.52351 -63.7597
384 1 124.391 5.52351 -63.7597
386 1 127.58 5.52351 -63.7597
388 1 130.769 5.52351 -63.7597
390 1 133.958 5.52351 -63.7597
392 1 137.147 5.52351 -63.7597
394 1 140.336 5.52351 -63.7597
396 1 143.525 5.52351 -63.7597
398 1 146.714 5.52351 -63.7597
400 1 -62.1652 8.28527 -63.7597
402 1 -58.9762 8.28527 -63.7597
404 1 -55.7872 8.28527 -63.7597
406 1 -52.5982 8.28527 -63.7597
408 1 -49.4092 8.28527 -63.7597
410 1 -46.2202 8.28527 -63.7597
412 1 -43.0312 8.28527 -63.7597
414 1 -39.8422 8.28527 -63.7597
416 1 -36.6532 8.28527 -63.7597
418 1 -33.4642 8.28527 -63.7597
420 1 -30.2752 8.28527 -63.7597
422 1 -27.0862 8.28527 -63.7597
424 1 -23.8972 8.28527 -63.7597
426 1 -20.7082 8.28527 -63.7597
428 1 -17.5192 8.28527 -63.7597
430 1 -14.3302 8.28527 -63.7597
432 1 -11.1412 8.28527 -63.7597
434 1 -7.95217 8.28527 -63.7597
436 1 -4.76317 8.28527 -63.7597
438 1 -1.57417 8.28527 -63.7597
440 1 1.61483 8.28527 -63.7597
442 1 4.80383 8.28527 -63.7597
444 1 7.99283 8.28527 -63.7597
446 1 11.1818 8.28527 -63.7597
448 1 14.3708 8.28527 -63.7597
450 1 17.5598 8.28527 -63.7597
452 1 20.7488 8.28527 -63.7597
454 1 23.9378 8.28527 -63.7597
456 1 27.1268 8.28527 -63.7597
458 1 30.3158 8.28527 -63.7597
460 1 33.5048 8.28527 -63.7597
462 1 36.6938 8.28527 -63.7597
464 1 39.8828 8.28527 -63.7597
466 1 43.0718 8.28527 -63.7597
468 1 46.2608 8.28527 -63.7597
470 1 49.4498 8.28527 -63.7597
472 1 52.6388 8.28527 -63.7597
474 1 55.8278 8.28527 -63.7597
476 1 59.0168 8.28527 -63.7597
478 1 62.2058 8.28527 -63.7597
480 1 65.3948 8.28527 -63.7597
482 1 68.5838 8.28527 -63.7597
484 1 71.7728 8.28527 -63.7597
486 1 74.9618 8.28527 -63.7597
488 1 78.1508 8.28527 -63.7597
490 1 81.3398 8.28527 -63.7597
492 1 84.5288 8.28527 -63.7597
494 1 87.7178 8.28527 -63.7597
496 1 90.9068 8.28527 -63.7597
498 1 94.0958 8.28527 -63.7597
500 1 97.2848 8.28527 -63.7597
502 1 100.474 8.28527 -63.7597
504 1 103.663 8.28527 -63.7597
506 1 106.852 8.28527 -63.7597
508 1 110.041 8.28527 -63.7597
510 1 113.23 8.28527 -63.7597
512 1 116.419 8.28527 -63.7597
514 1 119.608 8.28527 -63.7597
516 1 122.797 8.28527 -63.7597
518 1 125.986 8.28527 -63.7597
520 1 129.175 8.28527 -63.7597
522 1 132.364 8.28527 -63.7597
524 1 135.553 8.28527 -63.7597
526 1 138.742 8.28527 -63.7597
528 1 141.931 8.28527 -63.7597
530 1 145.12 8.28527 -63.7597
531 1 -63.7597 11.047 -63.7597
533 1 -60.5707 11.047 -63.7597
535 1 -57.3817 11.047 -63.7597
537 1 -54.1927 11.047 -63.7597
539 1 -51.0037 11.047 -63.7597
541 1 -47.8147 11.047 -63.7597
543 1 -44.6257 11.047 -63.7597
545 1 -41.4367 11.047 -63.7597
547 1 -38.2477 11.047 -63.7597
549 1 -35.0587 11.047 -63.7597
551 1 -31.8697 11.047 -63.7597
553 1 -28.6807 11.047 -63.7597
555 1 -25.4917 11.047 -63.7597
557 1 -22.3027 11.047 -63.7597
559 1 -19.1137 11.047 -63.7597
561 1 -15.9247 11.047 -63.7597
563 1 -12.7357 11.047 -63.7597
565 1 -9.54667 11.047 -63.7597
567 1 -6.35767 11.047 -63.7597
569 1 -3.16867 11.047 -63.7597
571 1 0.0203322 11.047 -63.7597
573 1 3.20933 11.047 -63.7597
575 1 6.39833 11.047 -63.7597
577 1 9.58733 11.047 -63.7597
579 1 12.7763 11.047 -63.7597
581 1 15.9653 11.047 -63.7597
583 1 19.1543 11.047 -63.7597
585 1 22.3433 11.047 -63.7597
587 1 25.5323 11.047 -63.7597
589 1 28.7213 11.047 -63.7597
591 1 31.9103 11.047 -63.7597
593 1 35.0993 11.047 -63.7597
595 1 38.2883 11.047 -63.7597
597 1 41.4773 11.047 -63.7597
599 1 44.6663 11.047 -63.7597
601 1 47.8553 11.047 -63.7597
603 1 51.0443 11.047 -63.7597
605 1 54.2333 11.047 -63.7597
607 1 57.4223 11.047 -63.7597
609 1 60.6113 11.047 -63.7597
611 1 63.8003 11.047 -63.7597
613 1 66.9893 11.047 -63.7597
615 1 70.1783 11.047 -63.7597
617 1 73.3673 11.047 -63.7597
619 1 76.5563 11.047 -63.7597
621 1 79.7453 11.047 -63.7597
623 1 82.9343 11.047 -63.7597
625 1 86.1233 11.047 -63.7597
627 1 89.3123 11.047 -63.7597
629 1 92.5013 11.047 -63.7597
631 1 95.6903 11.047 -63.7597
633 1 98.8793 11.047 -63.7597
635 1 102.068 11.047 -63.7597
637 1 105.257 11.047 -63.7597
639 1 108.446 11.047 -63.7597
641 1 111.635 11.047 -63.7597
643 1 114.824 11.047 -63.7597
645 1 118.013 11.047 -63.7597
647 1 121.202 11.047 -63.7597
649 1 124.391 11.047 -63.7597
651 1 127.58 11.047 -63.7597
653 1 130.769 11.047 -63.7597
655 1 133.958 11.047 -63.7597
657 1 137.147 11.047 -63.7597
659 1 140.336 11.047 -63.7597
661 1 143.525 11.047 -63.7597
663 1 146.714 11.047 -63.7597
665 1 -62.1652 13.8088 -63.7597
667 1 -58.9762 13.8088 -63.7597
669 1 -55.7872 13.8088 -63.7597
671 1 -52.5982 13.8088 -63.7597
673 1 -49.4092 13.8088 -63.7597
675 1 -46.2202 13.8088 -63.7597
677 1 -43.0312 13.8088 -63.7597
679 1 -39.8422 13.8088 -63.7597
681 1 -36.6532 13.8088 -63.7597
683 1 -33.4642 13.8088 -63.7597
685 1 -30.2752 13.8088 -63.7597
687 1 -27.0862 13.8088 -63.7597
689 1 -23.8972 13.8088 -63.7597
691 1 -20.7082 13.8088 -63.7597
693 1 -17.5192 13.8088 -63.7597
695 1 -14.3302 13.8088 -63.7597
697 1 -11.1412 13.8088 -63.7597
699 1 -7.95217 13.8088 -63.7597
701 1 -4.76317 13.8088 -63.7597
703 1 -1.57417 13.8088 -63.7597
705 1 1.61483 13.8088 -63.7597
707 1 4.80383 13.8088 -63.7597
709 1 7.99283 13.8088 -63.7597
711 1 11.1818 13.8088 -63.7597
713 1 14.3708 13.8088 -63.7597
715 1 17.5598 13.8088 -63.7597
717 1 20.7488 13.8088 -63.7597
719 1 23.9378 13.8088 -63.7597
721 1 27.1268 13.8088 -63.7597
723 1 30.3158 13.8088 -63.7597
725 1 33.5048 13.8088 -63.7597
727 1 36.6938 13.8088 -63.7597
729 1 39.8828 13.8088 -63.7597
731 1 43.0718 13.8088 -63.7597
733 1 46.2608 13.8088 -63.7597
735 1 49.4498 13.8088 -63.7597
737 1 52.6388 13.8088 -63.7597
739 1 55.8278 13.8088 -63.7597
741 1 59.0168 13.8088 -63.7597
743 1 62.2058 13.8088 -63.7597
745 1 65.3948 13.8088 -63.7597
747 1 68.5838 13.8088 -63.7597
749 1 71.7728 13.8088 -63.7597
751 1 74.9618 13.8088 -63.7597
753 1 78.1508 13.8088 -63.7597
755 1 81.3398 13.8088 -63.7597
757 1 84.5288 13.8088 -63.7597
759 1 87.7178 13.8088 -63.7597
761 1 90.9068 13.8088 -63.7597
763 1 94.0958 13.8088 -63.7597
765 1 97.2848 13.8088 -63.7597
767 1 100.474 13.8088 -63.7597
769 1 103.663 13.8088 -63.7597
771 1 106.852 13.8088 -63.7597
773 1 110.041 13.8088 -63.7597
775 1 113.23 13.8088 -63.7597
777 1 116.419 13.8088 -63.7597
779 1 119.608 13.8088 -63.7597
781 1 122.797 13.8088 -63.7597
783 1 125.986 13.8088 -63.7597
785 1 129.175 13.8088 -63.7597
787 1 132.364 13.8088 -63.7597
789 1 135.553 13.8088 -63.7597
791 1 138.742 13.8088 -63.7597
793 1 141.931 13.8088 -63.7597
795 1 145.12 13.8088 -63.7597
796 1 -63.7597 16.5705 -63.7597
798 1 -60.5707 16.5705 -63.7597
800 1 -57.3817 16.5705 -63.7597
802 1 -54.1927 16.5705 -63.7597
804 1 -51.0037 16.5705 -63.7597
806 1 -47.8147 16.5705 -63.7597
808 1 -44.6257 16.5705 -63.7597
810 1 -41.4367 16.5705 -63.7597
812 1 -38.2477 16.5705 -63.7597
814 1 -35.0587 16.5705 -63.7597
816 1 -31.8697 16.5705 -63.7597
818 1 -28.6807 16.5705 -63.7597
820 1 -25.4917 16.5705 -63.7597
822 1 -22.3027 16.5705 -63.7597
824 1 -19.1137 16.5705 -63.7597
826 1 -15.9247 16.5705 -63.7597
828 1 -12.7357 16.5705 -63.7597
830 1 -9.54667 16.5705 -63.7597
832 1 -6.35767 16.5705 -63.7597
834 1 -3.16867 16.5705 -63.7597
836 1 0.0203322 16.5705 -63.7597
838 1 3.20933 16.5705 -63.7597
840 1 6.39833 16.5705 -63.7597
842 1 9.58733 16.5705 -63.7597
844 1 12.7763 16.5705 -63.7597
846 1 15.9653 16.5705 -63.7597
848 1 19.1543 16.5705 -63.7597
850 1 22.3433 16.5705 -63.7597
852 1 25.5323 16.5705 -63.7597
854 1 28.7213 16.5705 -63.7597
856 1 31.9103 16.5705 -63.7597
858 1 35.0993 16.5705 -63.7597
860 1 38.2883 16.5705 -63.7597
862 1 41.4773 16.5705 -63.7597
864 1 44.6663 16.5705 -63.7597
866 1 47.8553 16.5705 -63.7597
868 1 51.0443 16.5705 -63.7597
870 1 54.2333 16.5705 -63.7597
872 1 57.4223 16.5705 -63.7597
874 1 60.6113 16.5705 -63.7597
876 1 63.8003 16.5705 -63.7597
878 1 66.9893 16.5705 -63.7597
880 1 70.1783 16.5705 -63.7597
882 1 73.3673 16.5705 -63.7597
884 1 76.5563 16.5705 -63.7597
886 1 79.7453 16.5705 -63.7597
888 1 82.9343 16.5705 -63.7597
890 1 86.1233 16.5705 -63.7597
892 1 89.3123 16.5705 -63.7597
894 1 92.5013 16.5705 -63.7597
896 1 95.6903 16.5705 -63.7597
898 1 98.8793 16.5705 -63.7597
900 1 102.068 16.5705 -63.7597
902 1 105.257 16.5705 -63.7597
904 1 108.446 16.5705 -63.7597
906 1 111.635 16.5705 -63.7597
908 1 114.824 16.5705 -63.7597
910 1 118.013 16.5705 -63.7597
912 1 121.202 16.5705 -63.7597
914 1 124.391 16.5705 -63.7597
916 1 127.58 16.5705 -63.7597
918 1 130.769 16.5705 -63.7597
920 1 133.958 16.5705 -63.7597
922 1 137.147 16.5705 -63.7597
924 1 140.336 16.5705 -63.7597
926 1 143.525 16.5705 -63.7597
928 1 146.714 16.5705 -63.7597
930 1 -62.1652 19.3323 -63.7597
932 1 -58.9762 19.3323 -63.7597
934 1 -55.7872 19.3323 -63.7597
936 1 -52.5982 19.3323 -63.7597
938 1 -49.4092 19.3323 -63.7597
940 1 -46.2202 19.3323 -63.7597
942 1 -43.0312 19.3323 -63.7597
944 1 -39.8422 19.3323 -63.7597
946 1 -36.6532 19.3323 -63.7597
948 1 -33.4642 19.3323 -63.7597
950 1 -30.2752 19.3323 -63.7597
952 1 -27.0862 19.3323 -63.7597
954 1 -23.8972 19.3323 -63.7597
956 1 -20.7082 19.3323 -63.7597
958 1 -17.5192 19.3323 -63.7597
960 1 -14.3302 19.3323 -63.7597
962 1 -11.1412 19.3323 -63.7597
964 1 -7.95217 19.3323 -63.7597
966 1 -4.76317 19.3323 -63.7597
968 1 -1.57417 19.3323 -63.7597
970 1 1.61483 19.3323 -63.7597
972 1 4.80383 19.3323 -63.7597
974 1 7.99283 19.3323 -63.7597
976 1 11.1818 19.3323 -63.7597
978 1 14.3708 19.3323 -63.7597
980 1 17.5598 19.3323 -63.7597
982 1 20.7488 19.3323 -63.7597
984 1 23.9378 19.3323 -63.7597
986 1 27.1268 19.3323 -63.7597
988 1 30.3158 19.3323 -63.7597
990 1 33.5048 19.3323 -63.7597
992 1 36.6938 19.3323 -63.7597
994 1 39.8828 19.3323 -63.7597
996 1 43.0718 19.3323 -63.7597
998 1 46.2608 19.3323 -63.7597
1000 1 49.4498 19.3323 -63.7597
1002 1 52.6388 19.3323 -63.7597
1004 1 55.8278 19.3323 -63.7597
1006 1 59.0168 19.3323 -63.7597
1008 1 62.2058 19.3323 -63.7597
1010 1 65.3948 19.3323 -63.7597
1012 1 68.5838 19.3323 -63.7597
1014 1 71.7728 19.3323 -63.7597
1016 1 74.9618 19.3323 -63.7597
1018 1 78.1508 19.3323 -63.7597
1020 1 81.3398 19.3323 -63.7597
1022 1 84.5288 19.3323 -63.7597
1024 1 87.7178 19.3323 -63.7597
1026 1 90.9068 19.3323 -63.7597
1028 1 94.0958 19.3323 -63.7597
1030 1 97.2848 19.3323 -63.7597
1032 1 100.474 19.3323 -63.7597
1034 1 103.663 19.3323 -63.7597
1036 1 106.852 19.3323 -63.7597
1038 1 110.041 19.3323 -63.7597
1040 1 113.23 19.3323 -63.7597
1042 1 116.419 19.3323 -63.7597
1044 1 119.608 19.3323 -63.7597
1046 1 122.797 19.3323 -63.7597
1048 1 125.986 19.3323 -63.7597
1050 1 129.175 19.3323 -63.7597
1052 1 132.364 19.3323 -63.7597
1054 1 135.553 19.3323 -63.7597
1056 1 138.742 19.3323 -63.7597
1058 1 141.931 19.3323 -63.7597
1060 1 145.12 19.3323 -63.7597
1061 1 -63.7597 22.094 -63.7597
1063 1 -60.5707 22.094 -63.7597
1065 1 -57.3817 22.094 -63.7597
1067 1 -54.1927 22.094 -63.7597
1069 1 -51.0037 22.094 -63.7597
1071 1 -47.8147 22.094 -63.7597
1073 1 -44.6257 22.094 -63.7597
1075 1 -41.4367 22.094 -63.7597
1077 1 -38.2477 22.094 -63.7597
1079 1 -35.0587 22.094 -63.7597
1081 1 -31.8697 22.094 -63.7597
1083 1 -28.6807 22.094 -63.7597
1085 1 -25.4917 22.094 -63.7597
1087 1 -22.3027 22.094 -63.7597
1089 1 -19.1137 22.094 -63.7597
1091 1 -15.9247 22.094 -63.7597
1093 1 -12.7357 22.094 -63.7597
1095 1 -9.54667 22.094 -63.7597
1097 1 -6.35767 22.094 -63.7597
1099 1 -3.16867 22.094 -63.7597
1101 1 0.0203322 22.094 -63.7597
1103 1 3.20933 22.094 -63.7597
1105 1 6.39833 22.094 -63.7597
1107 1 9.58733 22.094 -63.7597
1109 1 12.7763 22.094 -63.7597
1111 1 15.9653 22.094 -63.7597
1113 1 19.1543 22.094 -63.7597
1115 1 22.3433 22.094 -63.7597
1117 1 25.5323 22.094 -63.7597
1119 1 28.7213 22.094 -63.7597
1121 1 31.9103 22.094 -63.7597
1123 1 35.0993 22.094 -63.7597
1125 1 38.2883 22.094 -63.7597
1127 1 41.4773 22.094 -63.7597
1129 1 44.6663 22.094 -63.7597
1131 1 47.8553 22.094 -63.7597
1133 1 51.0443 22.094 -63.7597
1135 1 54.2333 22.094 -63.7597
1137 1 57.4223 22.094 -63.7597
1139 1 60.6113 22.094 -63.7597
1141 1 63.8003 22.094 -63.7597
1143 1 66.9893 22.094 -63.7597
1145 1 70.1783 22.094 -63.7597
1147 1 73.3673 22.094 -63.7597
1149 1 76.5563 22.094 -63.7597
1151 1 79.7453 22.094 -63.7597
1153 1 82.9343 22.094 -63.7597
1155 1 86.1233 22.094 -63.7597
1157 1 89.3123 22.094 -63.7597
1159 1 92.5013 22.094 -63.7597
1161 1 95.6903 22.094 -63.7597
1163 1 98.8793 22.094 -63.7597
1165 1 102.068 22.094 -63.7597
1167 1 105.257 22.094 -63.7597
1169 1 108.446 22.094 -63.7597
1171 1 111.635 22.094 -63.7597
1173 1 114.824 22.094 -63.7597
1175 1 118.013 22.094 -63.7597
1177 1 121.202 22.094 -63.7597
1179 1 124.391 22.094 -63.7597
1181 1 127.58 22.094 -63.7597
1183 1 130.769 22.094 -63.7597
1185 1 133.958 22.094 -63.7597
1187 1 137.147 22.094 -63.7597
1189 1 140.336 22.094 -63.7597
1191 1 143.525 22.094 -63.7597
1193 1 146.714 22.094 -63.7597
1195 1 -62.1652 24.8558 -63.7597
1197 1 -58.9762 24.8558 -63.7597
1199 1 -55.7872 24.8558 -63.7597
1201 1 -52.5982 24.8558 -63.7597
1203 1 -49.4092 24.8558 -63.7597
1205 1 -46.2202 24.8558 -63.7597
1207 1 -43.0312 24.8558 -63.7597
1209 1 -39.8422 24.8558 -63.7597
1211 1 -36.6532 24.8558 -63.7597
1213 1 -33.4642 24.8558 -63.7597
1215 1 -30.2752 24.8558 -63.7597
1217 1 -27.0862 24.8558 -63.7597
1219 1 -23.8972 24.8558 -63.7597
1221 1 -20.7082 24.8558 -63.7597
1223 1 -17.5192 24.8558 -63.7597
1225 1 -14.3302 24.8558 -63.7597
1227 1 -11.1412 24.8558 -63.7597
1229 1 -7.95217 24.8558 -63.7597
1231 1 -4.76317 24.8558 -63.7597
1233 1 -1.57417 24.8558 -63.7597
1235 1 1.61483 24.8558 -63.7597
1237 1 4.80383 24.8558 -63.7597
1239 1 7.99283 24.8558 -63.7597
1241 1 11.1818 24.8558 -63.7597
1243 1 14.3708 24.8558 -63.7597
1245 1 17.5598 24.8558 -63.7597
1247 1 20.7488 24.8558 -63.7597
1249 1 23.9378 24.8558 -63.7597
1251 1 27.1268 24.8558 -63.7597
1253 1 30.3158 24.8558 -63.7597
1255 1 33.5048 24.8558 -63.7597
1257 1 36.6938 24.8558 -63.7597
1259 1 39.8828 24.8558 -63.7597
1261 1 43.0718 24.8558 -63.7597
1263 1 46.2608 24.8558 -63.7597
1265 1 49.4498 24.8558 -63.7597
1267 1 52.6388 24.8558 -63.7597
1269 1 55.8278 24.8558 -63.7597
1271 1 59.0168 24.8558 -63.7597
1273 1 62.2058 24.8558 -63.7597
1275 1 65.3948 24.8558 -63.7597
1277 1 68.5838 24.8558 -63.7597
1279 1 71.7728 24.8558 -63.7597
1281 1 74.9618 24.8558 -63.7597
1283 1 78.1508 24.8558 -63.7597
1285 1 81.3398 24.8558 -63.7597
1287 1 84.5288 24.8558 -63.7597
1289 1 87.7178 24.8558 -63.7597
1291 1 90.9068 24.8558 -63.7597
1293 1 94.0958 24.8558 -63.7597
1295 1 97.2848 24.8558 -63.7597
1297 1 100.474 24.8558 -63.7597
1299 1 103.663 24.8558 -63.7597
1301 1 106.852 24.8558 -63.7597
1303 1 110.041 24.8558 -63.7597
1305 1 113.23 24.8558 -63.7597
1307 1 116.419 24.8558 -63.7597
1309 1 119.608 24.8558 -63.7597
1311 1 122.797 24.8558 -63.7597
1313 1 125.986 24.8558 -63.7597
1315 1 129.175 24.8558 -63.7597
1317 1 132.364 24.8558 -63.7597
1319 1 135.553 24.8558 -63.7597
1321 1 138.742 24.8558 -63.7597
1323 1 141.931 24.8558 -63.7597
1325 1 145.12 24.8558 -63.7597
1326 1 -63.7597 27.6176 -63.7597
1328 1 -60.5707 27.6176 -63.7597
1330 1 -57.3817 27.6176 -63.7597
1332 1 -54.1927 27.6176 -63.7597
1334 1 -51.0037 27.6176 -63.7597
1336 1 -47.8147 27.6176 -63.7597
1338 1 -44.6257 27.6176 -63.7597
1340 1 -41.4367 27.6176 -63.7597
1342 1 -38.2477 27.6176 -63.7597
1344 1 -35.0587 27.6176 -63.7597
1346 1 -31.8697 27.6176 -63.7597
1348 1 -28.6807 27.6176 -63.7597
1350 1 -25.4917 27.6176 -63.7597
1352 1 -22.3027 27.6176 -63.7597
1354 1 -19.1137 27.6176 -63.7597
1356 1 -15.9247 27.6176 -63.7597
1358 1 -12.7357 27.6176 -63.7597
1360 1 -9.54667 27.6176 -63.7597
1362 1 -6.35767 27.6176 -63.7597
1364 1 -3.16867 27.6176 -63.7597
1366 1 0.0203322 27.6176 -63.7597
1368 1 3.20933 27.6176 -63.7597
1370 1 6.39833 27.6176 -63.7597
1372 1 9.58733 27.6176 -63.7597
1374 1 12.7763 27.6176 -63.7597
1376 1 15.9653 27.6176 -63.7597
1378 1 19.1543 27.6176 -63.7597
1380 1 22.3433 27.6176 -63.7597
1382 1 25.5323 27.6176 -63.7597
1384 1 28.7213 27.6176 -63.7597
1386 1 31.9103 27.6176 -63.7597
1388 1 35.0993 27.6176 -63.7597
1390 1 38.2883 27.6176 -63.7597
1392 1 41.4773 27.6176 -63.7597
1394 1 44.6663 27.6176 -63.7597
1396 1 47.8553 27.6176 -63.7597
1398 1 51.0443 27.6176 -63.7597
1400 1 54.2333 27.6176 -63.7597
1402 1 57.4223 27.6176 -63.7597
1404 1 60.6113 27.6176 -63.7597
1406 1 63.8003 27.6176 -63.7597
1408 1 66.9893 27.6176 -63.7597
1410 1 70.1783 27.6176 -63.7597
1412 1 73.3673 27.6176 -63.7597
1414 1 76.5563 27.6176 -63.7597
1416 1 79.7453 27.6176 -63.7597
1418 1 82.9343 27.6176 -63.7597
1420 1 86.1233 27.6176 -63.7597
1422 1 89.3123 27.6176 -63.7597
1424 1 92.5013 27.6176 -63.7597
1426 1 95.6903 27.6176 -63.7597
1428 1 98.8793 27.6176 -63.7597
1430 1 102.068 27.6176 -63.7597
1432 1 105.257 27.6176 -63.7597
1434 1 108.446 27.6176 -63.7597
1436 1 111.635 27.6176 -63.7597
1438 1 114.824 27.6176 -63.7597
1440 1 118.013 27.6176 -63.7597
1442 1 121.202 27.6176 -63.7597
1444 1 124.391 27.6176 -63.7597
1446 1 127.58 27.6176 -63.7597
1448 1 130.769 27.6176 -63.7597
1450 1 133.958 27.6176 -63.7597
1452 1 137.147 27.6176 -63.7597
1454 1 140.336 27.6176 -63.7597
1456 1 143.525 27.6176 -63.7597
1458 1 146.714 27.6176 -63.7597
1460 1 -62.1652 30.3793 -63.7597
1462 1 -58.9762 30.3793 -63.7597
1464 1 -55.7872 30.3793 -63.7597
1466 1 -52.5982 30.3793 -63.7597
1468 1 -49.4092 30.3793 -63.7597
1470 1 -46.2202 30.3793 -63.7597
1472 1 -43.0312 30.3793 -63.7597
1474 1 -39.8422 30.3793 -63.7597
1476 1 -36.6532 30.3793 -63.7597
1478 1 -33.4642 30.3793 -63.7597
1480 1 -30.2752 30.3793 -63.7597
1482 1 -27.0862 30.3793 -63.7597
1484 1 -23.8972 30.3793 -63.7597
1486 1 -20.7082 30.3793 -63.7597
1488 1 -17.5192 30.3793 -63.7597
1490 1 -14.3302 30.3793 -63.7597
1492 1 -11.1412 30.3793 -63.7597
1494 1 -7.95217 30.3793 -63.7597
1496 1 -4.76317 30.3793 -63.7597
1498 1 -1.57417 30.3793 -63.7597
1500 1 1.61483 30.3793 -63.7597
1502 1 4.80383 30.3793 -63.7597
1504 1 7.99283 30.3793 -63.7597
1506 1 11.1818 30.3793 -63.7597
1508 1 14.3708 30.3793 -63.7597
1510 1 17.5598 30.3793 -63.7597
1512 1 20.7488 30.3793 -63.7597
1514 1 23.9378 30.3793 -63.7597
1516 1 27.1268 30.3793 -63.7597
1518 1 30.3158 30.3793 -63.7597
1520 1 33.5048 30.3793 -63.7597
1522 1 36.6938 30.3793 -63.7597
1524 1 39.8828 30.3793 -63.7597
1526 1 43.0718 30.3793 -63.7597
1528 1 46.2608 30.3793 -63.7597
1530 1 49.4498 30.3793 -63.7597
1532 1 52.6388 30.3793 -63.7597
1534 1 55.8278 30.3793 -63.7597
1536 1 59.0168 30.3793 -63.7597
1538 1 62.2058 30.3793 -63.7597
1540 1 65.3948 30.3793 -63.7597
1542 1 68.5838 30.3793 -63.7597
1544 1 71.7728 30.3793 -63.7597
1546 1 74.9618 30.3793 -63.7597
1548 1 78.1508 30.3793 -63.7597
1550 1 81.3398 30.3793 -63.7597
1552 1 84.5288 30.3793 -63.7597
1554 1 87.7178 30.3793 -63.7597
1556 1 90.9068 30.3793 -63.7597
1558 1 94.0958 30.3793 -63.7597
1560 1 97.2848 30.3793 -63.7597
1562 1 100.474 30.3793 -63.7597
1564 1 103.663 30.3793 -63.7597
1566 1 106.852 30.3793 -63.7597
1568 1 110.041 30.3793 -63.7597
1570 1 113.23 30.3793 -63.7597
1572 1 116.419 30.3793 -63.7597
1574 1 119.608 30.3793 -63.7597
1576 1 122.797 30.3793 -63.7597
1578 1 125.986 30.3793 -63.7597
1580 1 129.175 30.3793 -63.7597
1582 1 132.364 30.3793 -63.7597
1584 1 135.553 30.3793 -63.7597
1586 1 138.742 30.3793 -63.7597
1588 1 141.931 30.3793 -63.7597
1590 1 145.12 30.3793 -63.7597
1591 1 -63.7597 33.1411 -63.7597
1592 1 -60.5707 33.1411 -63.7597
1593 1 -57.3817 33.1411 -63.7597
1594 1 -54.1927 33.1411 -63.7597
1595 1 -51.0037 33.1411 -63.7597
1596 1 -47.8147 33.1411 -63.7597
1597 1 -44.6257 33.1411 -63.7597
1598 1 -41.4367 33.1411 -63.7597
1599 1 -38.2477 33.1411 -63.7597
1600 1 -35.0587 33.1411 -63.7597
1601 1 -31.8697 33.1411 -63.7597
1602 1 -28.6807 33.1411 -63.7597
1603 1 -25.4917 33.1411 -63.7597
1604 1 -22.3027 33.1411 -63.7597
1605 1 -19.1137 33.1411 -63.7597
1606 1 -15.9247 33.1411 -63.7597
1607 1 -12.7357 33.1411 -63.7597
1608 1 -9.54667 33.1411 -63.7597
1609 1 -6.35767 33.1411 -63.7597
1610 1 -3.16867 33.1411 -63.7597
1611 1 0.0203322 33.1411 -63.7597
1612 1 3.20933 33.1411 -63.7597
1613 1 6.39833 33.1411 -63.7597
1614 1 9.58733 33.1411 -63.7597
1615 1 12.7763 33.1411 -63.7597
1616 1 15.9653 33.1411 -63.7597
1617 1 19.1543 33.1411 -63.7597
1618 1 22.3433 33.1411 -63.7597
1619 1 25.5323 33.1411 -63.7597
1620 1 28.7213 33.1411 -63.7597
1621 1 31.9103 33.1411 -63.7597
1622 1 35.0993 33.1411 -63.7597
1623 1 38.2883 33.1411 -63.7597
1624 1 41.4773 33.1411 -63.7597
1625 1 44.6663 33.1411 -63.7597
1626 1 47.8553 33.1411 -63.7597
1627 1 51.0443 33.1411 -63.7597
1628 1 54.2333 33.1411 -63.7597
1629 1 57.4223 33.1411 -63.7597
1630 1 60.6113 33.1411 -63.7597
1631 1 63.8003 33.1411 -63.7597
1632 1 66.9893 33.1411 -63.7597
1633 1 70.1783 33.1411 -63.7597
1634 1 73.3673 33.1411 -63.7597
1635 1 76.5563 33.1411 -63.7597
1636 1 79.7453 33.1411 -63.7597
1637 1 82.9343 33.1411 -63.7597
1638 1 86.1233 33.1411 -63.7597
1639 1 89.3123 33.1411 -63.7597
1640 1 92.5013 33.1411 -63.7597
1641 1 95.6903 33.1411 -63.7597
1642 1 98.8793 33.1411 -63.7597
1643 1 102.068 33.1411 -63.7597
1644 1 105.257 33.1411 -63.7597
1645 1 108.446 33.1411 -63.7597
1646 1 111.635 33.1411 -63.7597
1647 1 114.824 33.1411 -63.7597
1648 1 118.013 33.1411 -63.7597
1649 1 121.202 33.1411 -63.7597
1650 1 124.391 33.1411 -63.7597
1651 1 127.58 33.1411 -63.7597
1652 1 130.769 33.1411 -63.7597
1653 1 133.958 33.1411 -63.7597
1654 1 137.147 33.1411 -63.7597
1655 1 140.336 33.1411 -63.7597
1656 1 143.525 33.1411 -63.7597
1657 1 146.714 33.1411 -63.7597
2 1 -62.1972 1.01668 -55.475
4 1 -59.0082 1.01668 -55.475
6 1 -55.8192 1.01668 -55.475
8 1 -52.6302 1.01668 -55.475
10 1 -49.4412 1.01668 -55.475
12 1 -46.2522 1.01668 -55.475
14 1 -43.0632 1.01668 -55.475
16 1 -39.8742 1.01668 -55.475
18 1 -36.6852 1.01668 -55.475
20 1 -33.4962 1.01668 -55.475
22 1 -30.3072 1.01668 -55.475
24 1 -27.1182 1.01668 -55.475
26 1 -23.9292 1.01668 -55.475
28 1 -20.7402 1.01668 -55.475
30 1 -17.5512 1.01668 -55.475
32 1 -14.3622 1.01668 -55.475
34 1 -11.1732 1.01668 -55.475
36 1 -7.98416 1.01668 -55.475
38 1 -4.79516 1.01668 -55.475
40 1 -1.60616 1.01668 -55.475
42 1 1.58284 1.01668 -55.475
44 1 4.77184 1.01668 -55.475
46 1 7.96084 1.01668 -55.475
48 1 11.1498 1.01668 -55.475
50 1 14.3388 1.01668 -55.475
52 1 17.5278 1.01668 -55.475
54 1 20.7168 1.01668 -55.475
56 1 23.9058 1.01668 -55.475
58 1 27.0948 1.01668 -55.475
60 1 30.2838 1.01668 -55.475
62 1 33.4728 1.01668 -55.475
64 1 36.6618 1.01668 -55.475
66 1 39.8508 1.01668 -55.475
68 1 43.0398 1.01668 -55.475
70 1 46.2288 1.01668 -55.475
72 1 49.4178 1.01668 -55.475
74 1 52.6068 1.01668 -55.475
76 1 55.7958 1.01668 -55.475
78 1 58.9848 1.01668 -55.475
80 1 62.1738 1.01668 -55.475
82 1 65.3628 1.01668 -55.475
84 1 68.5518 1.01668 -55.475
86 1 71.7408 1.01668 -55.475
88 1 74.9298 1.01668 -55.475
90 1 78.1188 1.01668 -55.475
92 1 81.3078 1.01668 -55.475
94 1 84.4968 1.01668 -55.475
96 1 87.6858 1.01668 -55.475
98 1 90.8748 1.01668 -55.475
100 1 94.0638 1.01668 -55.475
102 1 97.2528 1.01668 -55.475
104 1 100.442 1.01668 -55.475
106 1 103.631 1.01668 -55.475
108 1 106.82 1.01668 -55.475
110 1 110.009 1.01668 -55.475
112 1 113.198 1.01668 -55.475
114 1 116.387 1.01668 -55.475
116 1 119.576 1.01668 -55.475
118 1 122.765 1.01668 -55.475
120 1 125.954 1.01668 -55.475
122 1 129.143 1.01668 -55.475
124 1 132.332 1.01668 -55.475
126 1 135.521 1.01668 -55.475
128 1 138.71 1.01668 -55.475
130 1 141.899 1.01668 -55.475
132 1 145.088 1.01668 -55.475
134 1 -63.7595 3.68225 -55.4922
136 1 -60.6027 3.77843 -55.475
138 1 -57.4137 3.77843 -55.475
140 1 -54.2247 3.77843 -55.475
142 1 -51.0357 3.77843 -55.475
144 1 -47.8467 3.77843 -55.475
146 1 -44.6577 3.77843 -55.475
148 1 -41.4687 3.77843 -55.475
150 1 -38.2797 3.77843 -55.475
152 1 -35.0907 3.77843 -55.475
154 1 -31.9017 3.77843 -55.475
156 1 -28.7127 3.77843 -55.475
158 1 -25.5237 3.77843 -55.475
160 1 -22.3347 3.77843 -55.475
162 1 -19.1457 3.77843 -55.475
164 1 -15.9567 3.77843 -55.475
166 1 -12.7677 3.77843 -55.475
168 1 -9.57866 3.77843 -55.475
170 1 -6.38966 3.77843 -55.475
172 1 -3.20066 3.77843 -55.475
174 1 -0.0116617 3.77843 -55.475
176 1 3.17734 3.77843 -55.475
178 1 6.36634 3.77843 -55.475
180 1 9.55534 3.77843 -55.475
182 1 12.7443 3.77843 -55.475
184 1 15.9333 3.77843 -55.475
186 1 19.1223 3.77843 -55.475
188 1 22.3113 3.77843 -55.475
190 1 25.5003 3.77843 -55.475
192 1 28.6893 3.77843 -55.475
194 1 31.8783 3.77843 -55.475