ITEM: TIMESTEP
15500
ITEM: NUMBER OF ATOMS
14121
ITEM: BOX BOUNDS ss ss ss
-6.0567445833105261e+01 5.1187837740748330e+02
-1.0231754111503553e+00 3.4894139443550699e+01
-6.0553009532422465e+01 3.6537749590452984e+02
ITEM: ATOMS id type x y z
1 1 -60.5592 0 -60.5592
3 1 -57.3702 0 -60.5592
5 1 -54.1812 0 -60.5592
7 1 -50.9922 0 -60.5592
9 1 -47.8032 0 -60.5592
11 1 -44.6142 0 -60.5592
13 1 -41.4252 0 -60.5592
15 1 -38.2362 0 -60.5592
17 1 -35.0472 0 -60.5592
19 1 -31.8582 0 -60.5592
21 1 -28.6692 0 -60.5592
23 1 -25.4802 0 -60.5592
25 1 -22.2912 0 -60.5592
27 1 -19.1022 0 -60.5592
29 1 -15.9132 0 -60.5592
31 1 -12.7242 0 -60.5592
33 1 -9.5352 0 -60.5592
35 1 -6.3462 0 -60.5592
37 1 -3.1572 0 -60.5592
39 1 0.0318039 0 -60.5592
41 1 3.2208 0 -60.5592
43 1 6.4098 0 -60.5592
45 1 9.5988 0 -60.5592
47 1 12.7878 0 -60.5592
49 1 15.9768 0 -60.5592
51 1 19.1658 0 -60.5592
53 1 22.3548 0 -60.5592
55 1 25.5438 0 -60.5592
57 1 28.7328 0 -60.5592
59 1 31.9218 0 -60.5592
61 1 35.1108 0 -60.5592
63 1 38.2998 0 -60.5592
65 1 41.4888 0 -60.5592
67 1 44.6778 0 -60.5592
69 1 47.8668 0 -60.5592
71 1 51.0558 0 -60.5592
73 1 54.2448 0 -60.5592
75 1 57.4338 0 -60.5592
77 1 60.6228 0 -60.5592
79 1 63.8118 0 -60.5592
81 1 67.0008 0 -60.5592
83 1 70.1898 0 -60.5592
85 1 73.3788 0 -60.5592
87 1 76.5678 0 -60.5592
89 1 79.7568 0 -60.5592
91 1 82.9458 0 -60.5592
93 1 86.1348 0 -60.5592
95 1 89.3238 0 -60.5592
97 1 92.5128 0 -60.5592
99 1 95.7018 0 -60.5592
101 1 98.8908 0 -60.5592
103 1 102.08 0 -60.5592
105 1 105.269 0 -60.5592
107 1 108.458 0 -60.5592
109 1 111.647 0 -60.5592
111 1 114.836 0 -60.5592
113 1 118.025 0 -60.5592
115 1 121.214 0 -60.5592
117 1 124.403 0 -60.5592
119 1 127.592 0 -60.5592
121 1 130.781 0 -60.5592
123 1 133.97 0 -60.5592
125 1 137.159 0 -60.5592
127 1 140.348 0 -60.5592
129 1 143.537 0 -60.5592
131 1 146.726 0 -60.5592
133 1 149.915 0 -60.5592
135 1 -58.9647 2.76176 -60.5592
137 1 -55.7757 2.76176 -60.5592
139 1 -52.5867 2.76176 -60.5592
141 1 -49.3977 2.76176 -60.5592
143 1 -46.2087 2.76176 -60.5592
145 1 -43.0197 2.76176 -60.5592
147 1 -39.8307 2.76176 -60.5592
149 1 -36.6417 2.76176 -60.5592
151 1 -33.4527 2.76176 -60.5592
153 1 -30.2637 2.76176 -60.5592
155 1 -27.0747 2.76176 -60.5592
157 1 -23.8857 2.76176 -60.5592
159 1 -20.6967 2.76176 -60.5592
161 1 -17.5077 2.76176 -60.5592
163 1 -14.3187 2.76176 -60.5592
165 1 -11.1297 2.76176 -60.5592
167 1 -7.9407 2.76176 -60.5592
169 1 -4.7517 2.76176 -60.5592
171 1 -1.5627 2.76176 -60.5592
173 1 1.6263 2.76176 -60.5592
175 1 4.8153 2.76176 -60.5592
177 1 8.0043 2.76176 -60.5592
179 1 11.1933 2.76176 -60.5592
181 1 14.3823 2.76176 -60.5592
183 1 17.5713 2.76176 -60.5592
185 1 20.7603 2.76176 -60.5592
187 1 23.9493 2.76176 -60.5592
189 1 27.1383 2.76176 -60.5592
191 1 30.3273 2.76176 -60.5592
193 1 33.5163 2.76176 -60.5592
195 1 36.7053 2.76176 -60.5592
197 1 39.8943 2.76176 -60.5592
199 1 43.0833 2.76176 -60.5592
201 1 46.2723 2.76176 -60.5592
203 1 49.4613 2.76176 -60.5592
205 1 52.6503 2.76176 -60.5592
207 1 55.8393 2.76176 -60.5592
209 1 59.0283 2.76176 -60.5592
211 1 62.2173 2.76176 -60.5592
213 1 65.4063 2.76176 -60.5592
215 1 68.5953 2.76176 -60.5592
217 1 71.7843 2.76176 -60.5592
219 1 74.9733 2.76176 -60.5592
221 1 78.1623 2.76176 -60.5592
223 1 81.3513 2.76176 -60.5592
225 1 84.5403 2.76176 -60.5592
227 1 87.7293 2.76176 -60.5592
229 1 90.9183 2.76176 -60.5592
231 1 94.1073 2.76176 -60.5592
233 1 97.2963 2.76176 -60.5592
235 1 100.485 2.76176 -60.5592
237 1 103.674 2.76176 -60.5592
239 1 106.863 2.76176 -60.5592
241 1 110.052 2.76176 -60.5592
243 1 113.241 2.76176 -60.5592
245 1 116.43 2.76176 -60.5592
247 1 119.619 2.76176 -60.5592
249 1 122.808 2.76176 -60.5592
251 1 125.997 2.76176 -60.5592
253 1 129.186 2.76176 -60.5592
255 1 132.375 2.76176 -60.5592
257 1 135.564 2.76176 -60.5592
259 1 138.753 2.76176 -60.5592
261 1 141.942 2.76176 -60.5592
263 1 145.131 2.76176 -60.5592
265 1 148.32 2.76176 -60.5592
266 1 -60.5592 5.52351 -60.5592
268 1 -57.3702 5.52351 -60.5592
270 1 -54.1812 5.52351 -60.5592
272 1 -50.9922 5.52351 -60.5592
274 1 -47.8032 5.52351 -60.5592
276 1 -44.6142 5.52351 -60.5592
278 1 -41.4252 5.52351 -60.5592
280 1 -38.2362 5.52351 -60.5592
282 1 -35.0472 5.52351 -60.5592
284 1 -31.8582 5.52351 -60.5592
286 1 -28.6692 5.52351 -60.5592
288 1 -25.4802 5.52351 -60.5592
290 1 -22.2912 5.52351 -60.5592
292 1 -19.1022 5.52351 -60.5592
294 1 -15.9132 5.52351 -60.5592
296 1 -12.7242 5.52351 -60.5592
298 1 -9.5352 5.52351 -60.5592
300 1 -6.3462 5.52351 -60.5592
302 1 -3.1572 5.52351 -60.5592
304 1 0.0318039 5.52351 -60.5592
306 1 3.2208 5.52351 -60.5592
308 1 6.4098 5.52351 -60.5592
310 1 9.5988 5.52351 -60.5592
312 1 12.7878 5.52351 -60.5592
314 1 15.9768 5.52351 -60.5592
316 1 19.1658 5.52351 -60.5592
318 1 22.3548 5.52351 -60.5592
320 1 25.5438 5.52351 -60.5592
322 1 28.7328 5.52351 -60.5592
324 1 31.9218 5.52351 -60.5592
326 1 35.1108 5.52351 -60.5592
328 1 38.2998 5.52351 -60.5592
330 1 41.4888 5.52351 -60.5592
332 1 44.6778 5.52351 -60.5592
334 1 47.8668 5.52351 -60.5592
336 1 51.0558 5.52351 -60.5592
338 1 54.2448 5.52351 -60.5592
340 1 57.4338 5.52351 -60.5592
342 1 60.6228 5.52351 -60.5592
344 1 63.8118 5.52351 -60.5592
346 1 67.0008 5.52351 -60.5592
348 1 70.1898 5.52351 -60.5592
350 1 73.3788 5.52351 -60.5592
352 1 76.5678 5.52351 -60.5592
354 1 79.7568 5.52351 -60.5592
356 1 82.9458 5.52351 -60.5592
358 1 86.1348 5.52351 -60.5592
360 1 89.3238 5.52351 -60.5592
362 1 92.5128 5.52351 -60.5592
364 1 95.7018 5.52351 -60.5592
366 1 98.8908 5.52351 -60.5592
368 1 102.08 5.52351 -60.5592
370 1 105.269 5.52351 -60.5592
372 1 108.458 5.52351 -60.5592
374 1 111.647 5.52351 -60.5592
376 1 114.836 5.52351 -60.5592
378 1 118.025 5.52351 -60.5592
380 1 121.214 5.52351 -60.5592
382 1 124.403 5.52351 -60.5592
384 1 127.592 5.52351 -60.5592
386 1 130.781 5.52351 -60.5592
388 1 133.97 5.52351 -60.5592
390 1 137.159 5.52351 -60.5592
392 1 140.348 5.52351 -60.5592
394 1 143.537 5.52351 -60.5592
396 1 146.726 5.52351 -60.5592
398 1 149.915 5.52351 -60.5592
400 1 -58.9647 8.28527 -60.5592
402 1 -55.7757 8.28527 -60.5592
404 1 -52.5867 8.28527 -60.5592
406 1 -49.3977 8.28527 -60.5592
408 1 -46.2087 8.28527 -60.5592
410 1 -43.0197 8.28527 -60.5592
412 1 -39.8307 8.28527 -60.5592
414 1 -36.6417 8.28527 -60.5592
416 1 -33.4527 8.28527 -60.5592
418 1 -30.2637 8.28527 -60.5592
420 1 -27.0747 8.28527 -60.5592
422 1 -23.8857 8.28527 -60.5592
424 1 -20.6967 8.28527 -60.5592
426 1 -17.5077 8.28527 -60.5592
428 1 -14.3187 8.28527 -60.5592
430 1 -11.1297 8.28527 -60.5592
432 1 -7.9407 8.28527 -60.5592
434 1 -4.7517 8.28527 -60.5592
436 1 -1.5627 8.28527 -60.5592
438 1 1.6263 8.28527 -60.5592
440 1 4.8153 8.28527 -60.5592
442 1 8.0043 8.28527 -60.5592
444 1 11.1933 8.28527 -60.5592
446 1 14.3823 8.28527 -60.5592
448 1 17.5713 8.28527 -60.5592
450 1 20.7603 8.28527 -60.5592
452 1 23.9493 8.28527 -60.5592
454 1 27.1383 8.28527 -60.5592
456 1 30.3273 8.28527 -60.5592
458 1 33.5163 8.28527 -60.5592
460 1 36.7053 8.28527 -60.5592
462 1 39.8943 8.28527 -60.5592
464 1 43.0833 8.28527 -60.5592
466 1 46.2723 8.28527 -60.5592
468 1 49.4613 8.28527 -60.5592
470 1 52.6503 8.28527 -60.5592
472 1 55.8393 8.28527 -60.5592
474 1 59.0283 8.28527 -60.5592
476 1 62.2173 8.28527 -60.5592
478 1 65.4063 8.28527 -60.5592
480 1 68.5953 8.28527 -60.5592
482 1 71.7843 8.28527 -60.5592
484 1 74.9733 8.28527 -60.5592
486 1 78.1623 8.28527 -60.5592
488 1 81.3513 8.28527 -60.5592
490 1 84.5403 8.28527 -60.5592
492 1 87.7293 8.28527 -60.5592
494 1 90.9183 8.28527 -60.5592
496 1 94.1073 8.28527 -60.5592
498 1 97.2963 8.28527 -60.5592
500 1 100.485 8.28527 -60.5592
502 1 103.674 8.28527 -60.5592
504 1 106.863 8.28527 -60.5592
506 1 110.052 8.28527 -60.5592
508 1 113.241 8.28527 -60.5592
510 1 116.43 8.28527 -60.5592
512 1 119.619 8.28527 -60.5592
514 1 122.808 8.28527 -60.5592
516 1 125.997 8.28527 -60.5592
518 1 129.186 8.28527 -60.5592
520 1 132.375 8.28527 -60.5592
522 1 135.564 8.28527 -60.5592
524 1 138.753 8.28527 -60.5592
526 1 141.942 8.28527 -60.5592
528 1 145.131 8.28527 -60.5592
530 1 148.32 8.28527 -60.5592
531 1 -60.5592 11.047 -60.5592
533 1 -57.3702 11.047 -60.5592
535 1 -54.1812 11.047 -60.5592
537 1 -50.9922 11.047 -60.5592
539 1 -47.8032 11.047 -60.5592
541 1 -44.6142 11.047 -60.5592
543 1 -41.4252 11.047 -60.5592
545 1 -38.2362 11.047 -60.5592
547 1 -35.0472 11.047 -60.5592
549 1 -31.8582 11.047 -60.5592
551 1 -28.6692 11.047 -60.5592
553 1 -25.4802 11.047 -60.5592
555 1 -22.2912 11.047 -60.5592
557 1 -19.1022 11.047 -60.5592
559 1 -15.9132 11.047 -60.5592
561 1 -12.7242 11.047 -60.5592
563 1 -9.5352 11.047 -60.5592
565 1 -6.3462 11.047 -60.5592
567 1 -3.1572 11.047 -60.5592
569 1 0.0318039 11.047 -60.5592
571 1 3.2208 11.047 -60.5592
573 1 6.4098 11.047 -60.5592
575 1 9.5988 11.047 -60.5592
577 1 12.7878 11.047 -60.5592
579 1 15.9768 11.047 -60.5592
581 1 19.1658 11.047 -60.5592
583 1 22.3548 11.047 -60.5592
585 1 25.5438 11.047 -60.5592
587 1 28.7328 11.047 -60.5592
589 1 31.9218 11.047 -60.5592
591 1 35.1108 11.047 -60.5592
593 1 38.2998 11.047 -60.5592
595 1 41.4888 11.047 -60.5592
597 1 44.6778 11.047 -60.5592
599 1 47.8668 11.047 -60.5592
601 1 51.0558 11.047 -60.5592
603 1 54.2448 11.047 -60.5592
605 1 57.4338 11.047 -60.5592
607 1 60.6228 11.047 -60.5592
609 1 63.8118 11.047 -60.5592
611 1 67.0008 11.047 -60.5592
613 1 70.1898 11.047 -60.5592
615 1 73.3788 11.047 -60.5592
617 1 76.5678 11.047 -60.5592
619 1 79.7568 11.047 -60.5592
621 1 82.9458 11.047 -60.5592
623 1 86.1348 11.047 -60.5592
625 1 89.3238 11.047 -60.5592
627 1 92.5128 11.047 -60.5592
629 1 95.7018 11.047 -60.5592
631 1 98.8908 11.047 -60.5592
633 1 102.08 11.047 -60.5592
635 1 105.269 11.047 -60.5592
637 1 108.458 11.047 -60.5592
639 1 111.647 11.047 -60.5592
641 1 114.836 11.047 -60.5592
643 1 118.025 11.047 -60.5592
645 1 121.214 11.047 -60.5592
647 1 124.403 11.047 -60.5592
649 1 127.592 11.047 -60.5592
651 1 130.781 11.047 -60.5592
653 1 133.97 11.047 -60.5592
655 1 137.159 11.047 -60.5592
657 1 140.348 11.047 -60.5592
659 1 143.537 11.047 -60.5592
661 1 146.726 11.047 -60.5592
663 1 149.915 11.047 -60.5592
665 1 -58.9647 13.8088 -60.5592
667 1 -55.7757 13.8088 -60.5592
669 1 -52.5867 13.8088 -60.5592
671 1 -49.3977 13.8088 -60.5592
673 1 -46.2087 13.8088 -60.5592
675 1 -43.0197 13.8088 -60.5592
677 1 -39.8307 13.8088 -60.5592
679 1 -36.6417 13.8088 -60.5592
681 1 -33.4527 13.8088 -60.5592
683 1 -30.2637 13.8088 -60.5592
685 1 -27.0747 13.8088 -60.5592
687 1 -23.8857 13.8088 -60.5592
689 1 -20.6967 13.8088 -60.5592
691 1 -17.5077 13.8088 -60.5592
693 1 -14.3187 13.8088 -60.5592
695 1 -11.1297 13.8088 -60.5592
697 1 -7.9407 13.8088 -60.5592
699 1 -4.7517 13.8088 -60.5592
701 1 -1.5627 13.8088 -60.5592
703 1 1.6263 13.8088 -60.5592
705 1 4.8153 13.8088 -60.5592
707 1 8.0043 13.8088 -60.5592
709 1 11.1933 13.8088 -60.5592
711 1 14.3823 13.8088 -60.5592
713 1 17.5713 13.8088 -60.5592
715 1 20.7603 13.8088 -60.5592
717 1 23.9493 13.8088 -60.5592
719 1 27.1383 13.8088 -60.5592
721 1 30.3273 13.8088 -60.5592
723 1 33.5163 13.8088 -60.5592
725 1 36.7053 13.8088 -60.5592
727 1 39.8943 13.8088 -60.5592
729 1 43.0833 13.8088 -60.5592
731 1 46.2723 13.8088 -60.5592
733 1 49.4613 13.8088 -60.5592
735 1 52.6503 13.8088 -60.5592
737 1 55.8393 13.8088 -60.5592
739 1 59.0283 13.8088 -60.5592
741 1 62.2173 13.8088 -60.5592
743 1 65.4063 13.8088 -60.5592
745 1 68.5953 13.8088 -60.5592
747 1 71.7843 13.8088 -60.5592
749 1 74.9733 13.8088 -60.5592
751 1 78.1623 13.8088 -60.5592
753 1 81.3513 13.8088 -60.5592
755 1 84.5403 13.8088 -60.5592
757 1 87.7293 13.8088 -60.5592
759 1 90.9183 13.8088 -60.5592
761 1 94.1073 13.8088 -60.5592
763 1 97.2963 13.8088 -60.5592
765 1 100.485 13.8088 -60.5592
767 1 103.674 13.8088 -60.5592
769 1 106.863 13.8088 -60.5592
771 1 110.052 13.8088 -60.5592
773 1 113.241 13.8088 -60.5592
775 1 116.43 13.8088 -60.5592
777 1 119.619 13.8088 -60.5592
779 1 122.808 13.8088 -60.5592
781 1 125.997 13.8088 -60.5592
783 1 129.186 13.8088 -60.5592
785 1 132.375 13.8088 -60.5592
787 1 135.564 13.8088 -60.5592
789 1 138.753 13.8088 -60.5592
791 1 141.942 13.8088 -60.5592
793 1 145.131 13.8088 -60.5592
795 1 148.32 13.8088 -60.5592
796 1 -60.5592 16.5705 -60.5592
798 1 -57.3702 16.5705 -60.5592
800 1 -54.1812 16.5705 -60.5592
802 1 -50.9922 16.5705 -60.5592
804 1 -47.8032 16.5705 -60.5592
806 1 -44.6142 16.5705 -60.5592
808 1 -41.4252 16.5705 -60.5592
810 1 -38.2362 16.5705 -60.5592
812 1 -35.0472 16.5705 -60.5592
814 1 -31.8582 16.5705 -60.5592
816 1 -28.6692 16.5705 -60.5592
818 1 -25.4802 16.5705 -60.5592
820 1 -22.2912 16.5705 -60.5592
822 1 -19.1022 16.5705 -60.5592
824 1 -15.9132 16.5705 -60.5592
826 1 -12.7242 16.5705 -60.5592
828 1 -9.5352 16.5705 -60.5592
830 1 -6.3462 16.5705 -60.5592
832 1 -3.1572 16.5705 -60.5592
834 1 0.0318039 16.5705 -60.5592
836 1 3.2208 16.5705 -60.5592
838 1 6.4098 16.5705 -60.5592
840 1 9.5988 16.5705 -60.5592
842 1 12.7878 16.5705 -60.5592
844 1 15.9768 16.5705 -60.5592
846 1 19.1658 16.5705 -60.5592
848 1 22.3548 16.5705 -60.5592
850 1 25.5438 16.5705 -60.5592
852 1 28.7328 16.5705 -60.5592
854 1 31.9218 16.5705 -60.5592
856 1 35.1108 16.5705 -60.5592
858 1 38.2998 16.5705 -60.5592
860 1 41.4888 16.5705 -60.5592
862 1 44.6778 16.5705 -60.5592
864 1 47.8668 16.5705 -60.5592
866 1 51.0558 16.5705 -60.5592
868 1 54.2448 16.5705 -60.5592
870 1 57.4338 16.5705 -60.5592
872 1 60.6228 16.5705 -60.5592
874 1 63.8118 16.5705 -60.5592
876 1 67.0008 16.5705 -60.5592
878 1 70.1898 16.5705 -60.5592
880 1 73.3788 16.5705 -60.5592
882 1 76.5678 16.5705 -60.5592
884 1 79.7568 16.5705 -60.5592
886 1 82.9458 16.5705 -60.5592
888 1 86.1348 16.5705 -60.5592
890 1 89.3238 16.5705 -60.5592
892 1 92.5128 16.5705 -60.5592
894 1 95.7018 16.5705 -60.5592
896 1 98.8908 16.5705 -60.5592
898 1 102.08 16.5705 -60.5592
900 1 105.269 16.5705 -60.5592
902 1 108.458 16.5705 -60.5592
904 1 111.647 16.5705 -60.5592
906 1 114.836 16.5705 -60.5592
908 1 118.025 16.5705 -60.5592
910 1 121.214 16.5705 -60.5592
912 1 124.403 16.5705 -60.5592
914 1 127.592 16.5705 -60.5592
916 1 130.781 16.5705 -60.5592
918 1 133.97 16.5705 -60.5592
920 1 137.159 16.5705 -60.5592
922 1 140.348 16.5705 -60.5592
924 1 143.537 16.5705 -60.5592
926 1 146.726 16.5705 -60.5592
928 1 149.915 16.5705 -60.5592
930 1 -58.9647 19.3323 -60.5592
932 1 -55.7757 19.3323 -60.5592
934 1 -52.5867 19.3323 -60.5592
936 1 -49.3977 19.3323 -60.5592
938 1 -46.2087 19.3323 -60.5592
940 1 -43.0197 19.3323 -60.5592
942 1 -39.8307 19.3323 -60.5592
944 1 -36.6417 19.3323 -60.5592
946 1 -33.4527 19.3323 -60.5592
948 1 -30.2637 19.3323 -60.5592
950 1 -27.0747 19.3323 -60.5592
952 1 -23.8857 19.3323 -60.5592
954 1 -20.6967 19.3323 -60.5592
956 1 -17.5077 19.3323 -60.5592
958 1 -14.3187 19.3323 -60.5592
960 1 -11.1297 19.3323 -60.5592
962 1 -7.9407 19.3323 -60.5592
964 1 -4.7517 19.3323 -60.5592
966 1 -1.5627 19.3323 -60.5592
968 1 1.6263 19.3323 -60.5592
970 1 4.8153 19.3323 -60.5592
972 1 8.0043 19.3323 -60.5592
974 1 11.1933 19.3323 -60.5592
976 1 14.3823 19.3323 -60.5592
978 1 17.5713 19.3323 -60.5592
980 1 20.7603 19.3323 -60.5592
982 1 23.9493 19.3323 -60.5592
984 1 27.1383 19.3323 -60.5592
986 1 30.3273 19.3323 -60.5592
988 1 33.5163 19.3323 -60.5592
990 1 36.7053 19.3323 -60.5592
992 1 39.8943 19.3323 -60.5592
994 1 43.0833 19.3323 -60.5592
996 1 46.2723 19.3323 -60.5592
998 1 49.4613 19.3323 -60.5592
1000 1 52.6503 19.3323 -60.5592
1002 1 55.8393 19.3323 -60.5592
1004 1 59.0283 19.3323 -60.5592
1006 1 62.2173 19.3323 -60.5592
1008 1 65.4063 19.3323 -60.5592
1010 1 68.5953 19.3323 -60.5592
1012 1 71.7843 19.3323 -60.5592
1014 1 74.9733 19.3323 -60.5592
1016 1 78.1623 19.3323 -60.5592
1018 1 81.3513 19.3323 -60.5592
1020 1 84.5403 19.3323 -60.5592
1022 1 87.7293 19.3323 -60.5592
1024 1 90.9183 19.3323 -60.5592
1026 1 94.1073 19.3323 -60.5592
1028 1 97.2963 19.3323 -60.5592
1030 1 100.485 19.3323 -60.5592
1032 1 103.674 19.3323 -60.5592
1034 1 106.863 19.3323 -60.5592
1036 1 110.052 19.3323 -60.5592
1038 1 113.241 19.3323 -60.5592
1040 1 116.43 19.3323 -60.5592
1042 1 119.619 19.3323 -60.5592
1044 1 122.808 19.3323 -60.5592
1046 1 125.997 19.3323 -60.5592
1048 1 129.186 19.3323 -60.5592
1050 1 132.375 19.3323 -60.5592
1052 1 135.564 19.3323 -60.5592
1054 1 138.753 19.3323 -60.5592
1056 1 141.942 19.3323 -60.5592
1058 1 145.131 19.3323 -60.5592
1060 1 148.32 19.3323 -60.5592
1061 1 -60.5592 22.094 -60.5592
1063 1 -57.3702 22.094 -60.5592
1065 1 -54.1812 22.094 -60.5592
1067 1 -50.9922 22.094 -60.5592
1069 1 -47.8032 22.094 -60.5592
1071 1 -44.6142 22.094 -60.5592
1073 1 -41.4252 22.094 -60.5592
1075 1 -38.2362 22.094 -60.5592
1077 1 -35.0472 22.094 -60.5592
1079 1 -31.8582 22.094 -60.5592
1081 1 -28.6692 22.094 -60.5592
1083 1 -25.4802 22.094 -60.5592
1085 1 -22.2912 22.094 -60.5592
1087 1 -19.1022 22.094 -60.5592
1089 1 -15.9132 22.094 -60.5592
1091 1 -12.7242 22.094 -60.5592
1093 1 -9.5352 22.094 -60.5592
1095 1 -6.3462 22.094 -60.5592
1097 1 -3.1572 22.094 -60.5592
1099 1 0.0318039 22.094 -60.5592
1101 1 3.2208 22.094 -60.5592
1103 1 6.4098 22.094 -60.5592
1105 1 9.5988 22.094 -60.5592
1107 1 12.7878 22.094 -60.5592
1109 1 15.9768 22.094 -60.5592
1111 1 19.1658 22.094 -60.5592
1113 1 22.3548 22.094 -60.5592
1115 1 25.5438 22.094 -60.5592
1117 1 28.7328 22.094 -60.5592
1119 1 31.9218 22.094 -60.5592
1121 1 35.1108 22.094 -60.5592
1123 1 38.2998 22.094 -60.5592
1125 1 41.4888 22.094 -60.5592
1127 1 44.6778 22.094 -60.5592
1129 1 47.8668 22.094 -60.5592
1131 1 51.0558 22.094 -60.5592
1133 1 54.2448 22.094 -60.5592
1135 1 57.4338 22.094 -60.5592
1137 1 60.6228 22.094 -60.5592
1139 1 63.8118 22.094 -60.5592
1141 1 67.0008 22.094 -60.5592
1143 1 70.1898 22.094 -60.5592
1145 1 73.3788 22.094 -60.5592
1147 1 76.5678 22.094 -60.5592
1149 1 79.7568 22.094 -60.5592
1151 1 82.9458 22.094 -60.5592
1153 1 86.1348 22.094 -60.5592
1155 1 89.3238 22.094 -60.5592
1157 1 92.5128 22.094 -60.5592
1159 1 95.7018 22.094 -60.5592
1161 1 98.8908 22.094 -60.5592
1163 1 102.08 22.094 -60.5592
1165 1 105.269 22.094 -60.5592
1167 1 108.458 22.094 -60.5592
1169 1 111.647 22.094 -60.5592
1171 1 114.836 22.094 -60.5592
1173 1 118.025 22.094 -60.5592
1175 1 121.214 22.094 -60.5592
1177 1 124.403 22.094 -60.5592
1179 1 127.592 22.094 -60.5592
1181 1 130.781 22.094 -60.5592
1183 1 133.97 22.094 -60.5592
1185 1 137.159 22.094 -60.5592
1187 1 140.348 22.094 -60.5592
1189 1 143.537 22.094 -60.5592
1191 1 146.726 22.094 -60.5592
1193 1 149.915 22.094 -60.5592
1195 1 -58.9647 24.8558 -60.5592
1197 1 -55.7757 24.8558 -60.5592
1199 1 -52.5867 24.8558 -60.5592
1201 1 -49.3977 24.8558 -60.5592
1203 1 -46.2087 24.8558 -60.5592
1205 1 -43.0197 24.8558 -60.5592
1207 1 -39.8307 24.8558 -60.5592
1209 1 -36.6417 24.8558 -60.5592
1211 1 -33.4527 24.8558 -60.5592
1213 1 -30.2637 24.8558 -60.5592
1215 1 -27.0747 24.8558 -60.5592
1217 1 -23.8857 24.8558 -60.5592
1219 1 -20.6967 24.8558 -60.5592
1221 1 -17.5077 24.8558 -60.5592
1223 1 -14.3187 24.8558 -60.5592
1225 1 -11.1297 24.8558 -60.5592
1227 1 -7.9407 24.8558 -60.5592
1229 1 -4.7517 24.8558 -60.5592
1231 1 -1.5627 24.8558 -60.5592
1233 1 1.6263 24.8558 -60.5592
1235 1 4.8153 24.8558 -60.5592
1237 1 8.0043 24.8558 -60.5592
1239 1 11.1933 24.8558 -60.5592
1241 1 14.3823 24.8558 -60.5592
1243 1 17.5713 24.8558 -60.5592
1245 1 20.7603 24.8558 -60.5592
1247 1 23.9493 24.8558 -60.5592
1249 1 27.1383 24.8558 -60.5592
1251 1 30.3273 24.8558 -60.5592
1253 1 33.5163 24.8558 -60.5592
1255 1 36.7053 24.8558 -60.5592
1257 1 39.8943 24.8558 -60.5592
1259 1 43.0833 24.8558 -60.5592
1261 1 46.2723 24.8558 -60.5592
1263 1 49.4613 24.8558 -60.5592
1265 1 52.6503 24.8558 -60.5592
1267 1 55.8393 24.8558 -60.5592
1269 1 59.0283 24.8558 -60.5592
1271 1 62.2173 24.8558 -60.5592
1273 1 65.4063 24.8558 -60.5592
1275 1 68.5953 24.8558 -60.5592
1277 1 71.7843 24.8558 -60.5592
1279 1 74.9733 24.8558 -60.5592
1281 1 78.1623 24.8558 -60.5592
1283 1 81.3513 24.8558 -60.5592
1285 1 84.5403 24.8558 -60.5592
1287 1 87.7293 24.8558 -60.5592
1289 1 90.9183 24.8558 -60.5592
1291 1 94.1073 24.8558 -60.5592
1293 1 97.2963 24.8558 -60.5592
1295 1 100.485 24.8558 -60.5592
1297 1 103.674 24.8558 -60.5592
1299 1 106.863 24.8558 -60.5592
1301 1 110.052 24.8558 -60.5592
1303 1 113.241 24.8558 -60.5592
1305 1 116.43 24.8558 -60.5592
1307 1 119.619 24.8558 -60.5592
1309 1 122.808 24.8558 -60.5592
1311 1 125.997 24.8558 -60.5592
1313 1 129.186 24.8558 -60.5592
1315 1 132.375 24.8558 -60.5592
1317 1 135.564 24.8558 -60.5592
1319 1 138.753 24.8558 -60.5592
1321 1 141.942 24.8558 -60.5592
1323 1 145.131 24.8558 -60.5592
1325 1 148.32 24.8558 -60.5592
1326 1 -60.5592 27.6176 -60.5592
1328 1 -57.3702 27.6176 -60.5592
1330 1 -54.1812 27.6176 -60.5592
1332 1 -50.9922 27.6176 -60.5592
1334 1 -47.8032 27.6176 -60.5592
1336 1 -44.6142 27.6176 -60.5592
1338 1 -41.4252 27.6176 -60.5592
1340 1 -38.2362 27.6176 -60.5592
1342 1 -35.0472 27.6176 -60.5592
1344 1 -31.8582 27.6176 -60.5592
1346 1 -28.6692 27.6176 -60.5592
1348 1 -25.4802 27.6176 -60.5592
1350 1 -22.2912 27.6176 -60.5592
1352 1 -19.1022 27.6176 -60.5592
1354 1 -15.9132 27.6176 -60.5592
1356 1 -12.7242 27.6176 -60.5592
1358 1 -9.5352 27.6176 -60.5592
1360 1 -6.3462 27.6176 -60.5592
1362 1 -3.1572 27.6176 -60.5592
1364 1 0.0318039 27.6176 -60.5592
1366 1 3.2208 27.6176 -60.5592
1368 1 6.4098 27.6176 -60.5592
1370 1 9.5988 27.6176 -60.5592
1372 1 12.7878 27.6176 -60.5592
1374 1 15.9768 27.6176 -60.5592
1376 1 19.1658 27.6176 -60.5592
1378 1 22.3548 27.6176 -60.5592
1380 1 25.5438 27.6176 -60.5592
1382 1 28.7328 27.6176 -60.5592
1384 1 31.9218 27.6176 -60.5592
1386 1 35.1108 27.6176 -60.5592
1388 1 38.2998 27.6176 -60.5592
1390 1 41.4888 27.6176 -60.5592
1392 1 44.6778 27.6176 -60.5592
1394 1 47.8668 27.6176 -60.5592
1396 1 51.0558 27.6176 -60.5592
1398 1 54.2448 27.6176 -60.5592
1400 1 57.4338 27.6176 -60.5592
1402 1 60.6228 27.6176 -60.5592
1404 1 63.8118 27.6176 -60.5592
1406 1 67.0008 27.6176 -60.5592
1408 1 70.1898 27.6176 -60.5592
1410 1 73.3788 27.6176 -60.5592
1412 1 76.5678 27.6176 -60.5592
1414 1 79.7568 27.6176 -60.5592
1416 1 82.9458 27.6176 -60.5592
1418 1 86.1348 27.6176 -60.5592
1420 1 89.3238 27.6176 -60.5592
1422 1 92.5128 27.6176 -60.5592
1424 1 95.7018 27.6176 -60.5592
1426 1 98.8908 27.6176 -60.5592
1428 1 102.08 27.6176 -60.5592
1430 1 105.269 27.6176 -60.5592
1432 1 108.458 27.6176 -60.5592
1434 1 111.647 27.6176 -60.5592
1436 1 114.836 27.6176 -60.5592
1438 1 118.025 27.6176 -60.5592
1440 1 121.214 27.6176 -60.5592
1442 1 124.403 27.6176 -60.5592
1444 1 127.592 27.6176 -60.5592
1446 1 130.781 27.6176 -60.5592
1448 1 133.97 27.6176 -60.5592
1450 1 137.159 27.6176 -60.5592
1452 1 140.348 27.6176 -60.5592
1454 1 143.537 27.6176 -60.5592
1456 1 146.726 27.6176 -60.5592
1458 1 149.915 27.6176 -60.5592
1460 1 -58.9647 30.3793 -60.5592
1462 1 -55.7757 30.3793 -60.5592
1464 1 -52.5867 30.3793 -60.5592
1466 1 -49.3977 30.3793 -60.5592
1468 1 -46.2087 30.3793 -60.5592
1470 1 -43.0197 30.3793 -60.5592
1472 1 -39.8307 30.3793 -60.5592
1474 1 -36.6417 30.3793 -60.5592
1476 1 -33.4527 30.3793 -60.5592
1478 1 -30.2637 30.3793 -60.5592
1480 1 -27.0747 30.3793 -60.5592
1482 1 -23.8857 30.3793 -60.5592
1484 1 -20.6967 30.3793 -60.5592
1486 1 -17.5077 30.3793 -60.5592
1488 1 -14.3187 30.3793 -60.5592
1490 1 -11.1297 30.3793 -60.5592
1492 1 -7.9407 30.3793 -60.5592
1494 1 -4.7517 30.3793 -60.5592
1496 1 -1.5627 30.3793 -60.5592
1498 1 1.6263 30.3793 -60.5592
1500 1 4.8153 30.3793 -60.5592
1502 1 8.0043 30.3793 -60.5592
1504 1 11.1933 30.3793 -60.5592
1506 1 14.3823 30.3793 -60.5592
1508 1 17.5713 30.3793 -60.5592
1510 1 20.7603 30.3793 -60.5592
1512 1 23.9493 30.3793 -60.5592
1514 1 27.1383 30.3793 -60.5592
1516 1 30.3273 30.3793 -60.5592
1518 1 33.5163 30.3793 -60.5592
1520 1 36.7053 30.3793 -60.5592
1522 1 39.8943 30.3793 -60.5592
1524 1 43.0833 30.3793 -60.5592
1526 1 46.2723 30.3793 -60.5592
1528 1 49.4613 30.3793 -60.5592
1530 1 52.6503 30.3793 -60.5592
1532 1 55.8393 30.3793 -60.5592
1534 1 59.0283 30.3793 -60.5592
1536 1 62.2173 30.3793 -60.5592
1538 1 65.4063 30.3793 -60.5592
1540 1 68.5953 30.3793 -60.5592
1542 1 71.7843 30.3793 -60.5592
1544 1 74.9733 30.3793 -60.5592
1546 1 78.1623 30.3793 -60.5592
1548 1 81.3513 30.3793 -60.5592
1550 1 84.5403 30.3793 -60.5592
1552 1 87.7293 30.3793 -60.5592
1554 1 90.9183 30.3793 -60.5592
1556 1 94.1073 30.3793 -60.5592
1558 1 97.2963 30.3793 -60.5592
1560 1 100.485 30.3793 -60.5592
1562 1 103.674 30.3793 -60.5592
1564 1 106.863 30.3793 -60.5592
1566 1 110.052 30.3793 -60.5592
1568 1 113.241 30.3793 -60.5592
1570 1 116.43 30.3793 -60.5592
1572 1 119.619 30.3793 -60.5592
1574 1 122.808 30.3793 -60.5592
1576 1 125.997 30.3793 -60.5592
1578 1 129.186 30.3793 -60.5592
1580 1 132.375 30.3793 -60.5592
1582 1 135.564 30.3793 -60.5592
1584 1 138.753 30.3793 -60.5592
1586 1 141.942 30.3793 -60.5592
1588 1 145.131 30.3793 -60.5592
1590 1 148.32 30.3793 -60.5592
1591 1 -60.5592 33.1411 -60.5592
1592 1 -57.3702 33.1411 -60.5592
1593 1 -54.1812 33.1411 -60.5592
1594 1 -50.9922 33.1411 -60.5592
1595 1 -47.8032 33.1411 -60.5592
1596 1 -44.6142 33.1411 -60.5592
1597 1 -41.4252 33.1411 -60.5592
1598 1 -38.2362 33.1411 -60.5592
1599 1 -35.0472 33.1411 -60.5592
1600 1 -31.8582 33.1411 -60.5592
1601 1 -28.6692 33.1411 -60.5592
1602 1 -25.4802 33.1411 -60.5592
1603 1 -22.2912 33.1411 -60.5592
1604 1 -19.1022 33.1411 -60.5592
1605 1 -15.9132 33.1411 -60.5592
1606 1 -12.7242 33.1411 -60.5592
1607 1 -9.5352 33.1411 -60.5592
1608 1 -6.3462 33.1411 -60.5592
1609 1 -3.1572 33.1411 -60.5592
1610 1 0.0318039 33.1411 -60.5592
1611 1 3.2208 33.1411 -60.5592
1612 1 6.4098 33.1411 -60.5592
1613 1 9.5988 33.1411 -60.5592
1614 1 12.7878 33.1411 -60.5592
1615 1 15.9768 33.1411 -60.5592
1616 1 19.1658 33.1411 -60.5592
1617 1 22.3548 33.1411 -60.5592
1618 1 25.5438 33.1411 -60.5592
1619 1 28.7328 33.1411 -60.5592
1620 1 31.9218 33.1411 -60.5592
1621 1 35.1108 33.1411 -60.5592
1622 1 38.2998 33.1411 -60.5592
1623 1 41.4888 33.1411 -60.5592
1624 1 44.6778 33.1411 -60.5592
1625 1 47.8668 33.1411 -60.5592
1626 1 51.0558 33.1411 -60.5592
1627 1 54.2448 33.1411 -60.5592
1628 1 57.4338 33.1411 -60.5592
1629 1 60.6228 33.1411 -60.5592
1630 1 63.8118 33.1411 -60.5592
1631 1 67.0008 33.1411 -60.5592
1632 1 70.1898 33.1411 -60.5592
1633 1 73.3788 33.1411 -60.5592
1634 1 76.5678 33.1411 -60.5592
1635 1 79.7568 33.1411 -60.5592
1636 1 82.9458 33.1411 -60.5592
1637 1 86.1348 33.1411 -60.5592
1638 1 89.3238 33.1411 -60.5592
1639 1 92.5128 33.1411 -60.5592
1640 1 95.7018 33.1411 -60.5592
1641 1 98.8908 33.1411 -60.5592
1642 1 102.08 33.1411 -60.5592
1643 1 105.269 33.1411 -60.5592
1644 1 108.458 33.1411 -60.5592
1645 1 111.647 33.1411 -60.5592
1646 1 114.836 33.1411 -60.5592
1647 1 118.025 33.1411 -60.5592
1648 1 121.214 33.1411 -60.5592
1649 1 124.403 33.1411 -60.5592
1650 1 127.592 33.1411 -60.5592
1651 1 130.781 33.1411 -60.5592
1652 1 133.97 33.1411 -60.5592
1653 1 137.159 33.1411 -60.5592
1654 1 140.348 33.1411 -60.5592
1655 1 143.537 33.1411 -60.5592
1656 1 146.726 33.1411 -60.5592
1657 1 149.915 33.1411 -60.5592
2 1 -58.9967 1.01668 -52.2745
4 1 -55.8077 1.01668 -52.2745
6 1 -52.6187 1.01668 -52.2745
8 1 -49.4297 1.01668 -52.2745
10 1 -46.2407 1.01668 -52.2745
12 1 -43.0517 1.01668 -52.2745
14 1 -39.8627 1.01668 -52.2745
16 1 -36.6737 1.01668 -52.2745
18 1 -33.4847 1.01668 -52.2745
20 1 -30.2957 1.01668 -52.2745
22 1 -27.1067 1.01668 -52.2745
24 1 -23.9177 1.01668 -52.2745
26 1 -20.7287 1.01668 -52.2745
28 1 -17.5397 1.01668 -52.2745
30 1 -14.3507 1.01668 -52.2745
32 1 -11.1617 1.01668 -52.2745
34 1 -7.97269 1.01668 -52.2745
36 1 -4.78369 1.01668 -52.2745
38 1 -1.59469 1.01668 -52.2745
40 1 1.59431 1.01668 -52.2745
42 1 4.78331 1.01668 -52.2745
44 1 7.97231 1.01668 -52.2745
46 1 11.1613 1.01668 -52.2745
48 1 14.3503 1.01668 -52.2745
50 1 17.5393 1.01668 -52.2745
52 1 20.7283 1.01668 -52.2745
54 1 23.9173 1.01668 -52.2745
56 1 27.1063 1.01668 -52.2745
58 1 30.2953 1.01668 -52.2745
60 1 33.4843 1.01668 -52.2745
62 1 36.6733 1.01668 -52.2745
64 1 39.8623 1.01668 -52.2745
66 1 43.0513 1.01668 -52.2745
68 1 46.2403 1.01668 -52.2745
70 1 49.4293 1.01668 -52.2745
72 1 52.6183 1.01668 -52.2745
74 1 55.8073 1.01668 -52.2745
76 1 58.9963 1.01668 -52.2745
78 1 62.1853 1.01668 -52.2745
80 1 65.3743 1.01668 -52.2745
82 1 68.5633 1.01668 -52.2745
84 1 71.7523 1.01668 -52.2745
86 1 74.9413 1.01668 -52.2745
88 1 78.1303 1.01668 -52.2745
90 1 81.3193 1.01668 -52.2745
92 1 84.5083 1.01668 -52.2745
94 1 87.6973 1.01668 -52.2745
96 1 90.8863 1.01668 -52.2745
98 1 94.0753 1.01668 -52.2745
100 1 97.2643 1.01668 -52.2745
102 1 100.453 1.01668 -52.2745
104 1 103.642 1.01668 -52.2745
106 1 106.831 1.01668 -52.2745
108 1 110.02 1.01668 -52.2745
110 1 113.209 1.01668 -52.2745
112 1 116.398 1.01668 -52.2745
114 1 119.587 1.01668 -52.2745
116 1 122.776 1.01668 -52.2745
118 1 125.965 1.01668 -52.2745
120 1 129.154 1.01668 -52.2745
122 1 132.343 1.01668 -52.2745
124 1 135.532 1.01668 -52.2745
126 1 138.721 1.01668 -52.2745
128 1 141.91 1.01668 -52.2745
130 1 145.099 1.01668 -52.2745
132 1 148.288 1.01668 -52.2745
134 1 -60.559 3.68225 -52.2917
136 1 -57.4022 3.77843 -52.2745
138 1 -54.2132 3.77843 -52.2745
140 1 -51.0242 3.77843 -52.2745
142 1 -47.8352 3.77843 -52.2745
144 1 -44.6462 3.77843 -52.2745
146 1 -41.4572 3.77843 -52.2745
148 1 -38.2682 3.77843 -52.2745
150 1 -35.0792 3.77843 -52.2745
152 1 -31.8902 3.77843 -52.2745
154 1 -28.7012 3.77843 -52.2745
156 1 -25.5122 3.77843 -52.2745
158 1 -22.3232 3.77843 -52.2745
160 1 -19.1342 3.77843 -52.2745
162 1 -15.9452 3.77843 -52.2745
164 1 -12.7562 3.77843 -52.2745
166 1 -9.56719 3.77843 -52.2745
168 1 -6.37819 3.77843 -52.2745
170 1 -3.18919 3.77843 -52.2745
172 1 -0.000190012 3.77843 -52.2745
174 1 3.18881 3.77843 -52.2745
176 1 6.37781 3.77843 -52.2745
178 1 9.56681 3.77843 -52.2745
180 1 12.7558 3.77843 -52.2745
182 1 15.9448 3.77843 -52.2745
184 1 19.1338 3.77843 -52.2745
186 1 22.3228 3.77843 -52.2745
188 1 25.5118 3.77843 -52.2745
190 1 28.7008 3.77843 -52.2745
192 1 31.8898 3.77843 -52.2745
194 1 35.0788 3.77843 -52.2745