ITEM: TIMESTEP
13500
ITEM: NUMBER OF ATOMS
14121
ITEM: BOX BOUNDS ss ss ss
-4.7695148823038387e+01 4.4780361732808012e+02
-1.0231754111503553e+00 3.3781192455658207e+01
-4.7680712522355591e+01 3.0130273582512666e+02
ITEM: ATOMS id type x y z
1 1 -47.7573 0 -47.7573
3 1 -44.5683 0 -47.7573
5 1 -41.3793 0 -47.7573
7 1 -38.1903 0 -47.7573
9 1 -35.0013 0 -47.7573
11 1 -31.8123 0 -47.7573
13 1 -28.6233 0 -47.7573
15 1 -25.4343 0 -47.7573
17 1 -22.2453 0 -47.7573
19 1 -19.0563 0 -47.7573
21 1 -15.8673 0 -47.7573
23 1 -12.6783 0 -47.7573
25 1 -9.48931 0 -47.7573
27 1 -6.30031 0 -47.7573
29 1 -3.11131 0 -47.7573
31 1 0.0776905 0 -47.7573
33 1 3.26669 0 -47.7573
35 1 6.45569 0 -47.7573
37 1 9.64469 0 -47.7573
39 1 12.8337 0 -47.7573
41 1 16.0227 0 -47.7573
43 1 19.2117 0 -47.7573
45 1 22.4007 0 -47.7573
47 1 25.5897 0 -47.7573
49 1 28.7787 0 -47.7573
51 1 31.9677 0 -47.7573
53 1 35.1567 0 -47.7573
55 1 38.3457 0 -47.7573
57 1 41.5347 0 -47.7573
59 1 44.7237 0 -47.7573
61 1 47.9127 0 -47.7573
63 1 51.1017 0 -47.7573
65 1 54.2907 0 -47.7573
67 1 57.4797 0 -47.7573
69 1 60.6687 0 -47.7573
71 1 63.8577 0 -47.7573
73 1 67.0467 0 -47.7573
75 1 70.2357 0 -47.7573
77 1 73.4247 0 -47.7573
79 1 76.6137 0 -47.7573
81 1 79.8027 0 -47.7573
83 1 82.9917 0 -47.7573
85 1 86.1807 0 -47.7573
87 1 89.3697 0 -47.7573
89 1 92.5587 0 -47.7573
91 1 95.7477 0 -47.7573
93 1 98.9367 0 -47.7573
95 1 102.126 0 -47.7573
97 1 105.315 0 -47.7573
99 1 108.504 0 -47.7573
101 1 111.693 0 -47.7573
103 1 114.882 0 -47.7573
105 1 118.071 0 -47.7573
107 1 121.26 0 -47.7573
109 1 124.449 0 -47.7573
111 1 127.638 0 -47.7573
113 1 130.827 0 -47.7573
115 1 134.016 0 -47.7573
117 1 137.205 0 -47.7573
119 1 140.394 0 -47.7573
121 1 143.583 0 -47.7573
123 1 146.772 0 -47.7573
125 1 149.961 0 -47.7573
127 1 153.15 0 -47.7573
129 1 156.339 0 -47.7573
131 1 159.528 0 -47.7573
133 1 162.717 0 -47.7573
135 1 -46.1628 2.76176 -47.7573
137 1 -42.9738 2.76176 -47.7573
139 1 -39.7848 2.76176 -47.7573
141 1 -36.5958 2.76176 -47.7573
143 1 -33.4068 2.76176 -47.7573
145 1 -30.2178 2.76176 -47.7573
147 1 -27.0288 2.76176 -47.7573
149 1 -23.8398 2.76176 -47.7573
151 1 -20.6508 2.76176 -47.7573
153 1 -17.4618 2.76176 -47.7573
155 1 -14.2728 2.76176 -47.7573
157 1 -11.0838 2.76176 -47.7573
159 1 -7.89481 2.76176 -47.7573
161 1 -4.70581 2.76176 -47.7573
163 1 -1.51681 2.76176 -47.7573
165 1 1.67219 2.76176 -47.7573
167 1 4.86119 2.76176 -47.7573
169 1 8.05019 2.76176 -47.7573
171 1 11.2392 2.76176 -47.7573
173 1 14.4282 2.76176 -47.7573
175 1 17.6172 2.76176 -47.7573
177 1 20.8062 2.76176 -47.7573
179 1 23.9952 2.76176 -47.7573
181 1 27.1842 2.76176 -47.7573
183 1 30.3732 2.76176 -47.7573
185 1 33.5622 2.76176 -47.7573
187 1 36.7512 2.76176 -47.7573
189 1 39.9402 2.76176 -47.7573
191 1 43.1292 2.76176 -47.7573
193 1 46.3182 2.76176 -47.7573
195 1 49.5072 2.76176 -47.7573
197 1 52.6962 2.76176 -47.7573
199 1 55.8852 2.76176 -47.7573
201 1 59.0742 2.76176 -47.7573
203 1 62.2632 2.76176 -47.7573
205 1 65.4522 2.76176 -47.7573
207 1 68.6412 2.76176 -47.7573
209 1 71.8302 2.76176 -47.7573
211 1 75.0192 2.76176 -47.7573
213 1 78.2082 2.76176 -47.7573
215 1 81.3972 2.76176 -47.7573
217 1 84.5862 2.76176 -47.7573
219 1 87.7752 2.76176 -47.7573
221 1 90.9642 2.76176 -47.7573
223 1 94.1532 2.76176 -47.7573
225 1 97.3422 2.76176 -47.7573
227 1 100.531 2.76176 -47.7573
229 1 103.72 2.76176 -47.7573
231 1 106.909 2.76176 -47.7573
233 1 110.098 2.76176 -47.7573
235 1 113.287 2.76176 -47.7573
237 1 116.476 2.76176 -47.7573
239 1 119.665 2.76176 -47.7573
241 1 122.854 2.76176 -47.7573
243 1 126.043 2.76176 -47.7573
245 1 129.232 2.76176 -47.7573
247 1 132.421 2.76176 -47.7573
249 1 135.61 2.76176 -47.7573
251 1 138.799 2.76176 -47.7573
253 1 141.988 2.76176 -47.7573
255 1 145.177 2.76176 -47.7573
257 1 148.366 2.76176 -47.7573
259 1 151.555 2.76176 -47.7573
261 1 154.744 2.76176 -47.7573
263 1 157.933 2.76176 -47.7573
265 1 161.122 2.76176 -47.7573
266 1 -47.7573 5.52351 -47.7573
268 1 -44.5683 5.52351 -47.7573
270 1 -41.3793 5.52351 -47.7573
272 1 -38.1903 5.52351 -47.7573
274 1 -35.0013 5.52351 -47.7573
276 1 -31.8123 5.52351 -47.7573
278 1 -28.6233 5.52351 -47.7573
280 1 -25.4343 5.52351 -47.7573
282 1 -22.2453 5.52351 -47.7573
284 1 -19.0563 5.52351 -47.7573
286 1 -15.8673 5.52351 -47.7573
288 1 -12.6783 5.52351 -47.7573
290 1 -9.48931 5.52351 -47.7573
292 1 -6.30031 5.52351 -47.7573
294 1 -3.11131 5.52351 -47.7573
296 1 0.0776905 5.52351 -47.7573
298 1 3.26669 5.52351 -47.7573
300 1 6.45569 5.52351 -47.7573
302 1 9.64469 5.52351 -47.7573
304 1 12.8337 5.52351 -47.7573
306 1 16.0227 5.52351 -47.7573
308 1 19.2117 5.52351 -47.7573
310 1 22.4007 5.52351 -47.7573
312 1 25.5897 5.52351 -47.7573
314 1 28.7787 5.52351 -47.7573
316 1 31.9677 5.52351 -47.7573
318 1 35.1567 5.52351 -47.7573
320 1 38.3457 5.52351 -47.7573
322 1 41.5347 5.52351 -47.7573
324 1 44.7237 5.52351 -47.7573
326 1 47.9127 5.52351 -47.7573
328 1 51.1017 5.52351 -47.7573
330 1 54.2907 5.52351 -47.7573
332 1 57.4797 5.52351 -47.7573
334 1 60.6687 5.52351 -47.7573
336 1 63.8577 5.52351 -47.7573
338 1 67.0467 5.52351 -47.7573
340 1 70.2357 5.52351 -47.7573
342 1 73.4247 5.52351 -47.7573
344 1 76.6137 5.52351 -47.7573
346 1 79.8027 5.52351 -47.7573
348 1 82.9917 5.52351 -47.7573
350 1 86.1807 5.52351 -47.7573
352 1 89.3697 5.52351 -47.7573
354 1 92.5587 5.52351 -47.7573
356 1 95.7477 5.52351 -47.7573
358 1 98.9367 5.52351 -47.7573
360 1 102.126 5.52351 -47.7573
362 1 105.315 5.52351 -47.7573
364 1 108.504 5.52351 -47.7573
366 1 111.693 5.52351 -47.7573
368 1 114.882 5.52351 -47.7573
370 1 118.071 5.52351 -47.7573
372 1 121.26 5.52351 -47.7573
374 1 124.449 5.52351 -47.7573
376 1 127.638 5.52351 -47.7573
378 1 130.827 5.52351 -47.7573
380 1 134.016 5.52351 -47.7573
382 1 137.205 5.52351 -47.7573
384 1 140.394 5.52351 -47.7573
386 1 143.583 5.52351 -47.7573
388 1 146.772 5.52351 -47.7573
390 1 149.961 5.52351 -47.7573
392 1 153.15 5.52351 -47.7573
394 1 156.339 5.52351 -47.7573
396 1 159.528 5.52351 -47.7573
398 1 162.717 5.52351 -47.7573
400 1 -46.1628 8.28527 -47.7573
402 1 -42.9738 8.28527 -47.7573
404 1 -39.7848 8.28527 -47.7573
406 1 -36.5958 8.28527 -47.7573
408 1 -33.4068 8.28527 -47.7573
410 1 -30.2178 8.28527 -47.7573
412 1 -27.0288 8.28527 -47.7573
414 1 -23.8398 8.28527 -47.7573
416 1 -20.6508 8.28527 -47.7573
418 1 -17.4618 8.28527 -47.7573
420 1 -14.2728 8.28527 -47.7573
422 1 -11.0838 8.28527 -47.7573
424 1 -7.89481 8.28527 -47.7573
426 1 -4.70581 8.28527 -47.7573
428 1 -1.51681 8.28527 -47.7573
430 1 1.67219 8.28527 -47.7573
432 1 4.86119 8.28527 -47.7573
434 1 8.05019 8.28527 -47.7573
436 1 11.2392 8.28527 -47.7573
438 1 14.4282 8.28527 -47.7573
440 1 17.6172 8.28527 -47.7573
442 1 20.8062 8.28527 -47.7573
444 1 23.9952 8.28527 -47.7573
446 1 27.1842 8.28527 -47.7573
448 1 30.3732 8.28527 -47.7573
450 1 33.5622 8.28527 -47.7573
452 1 36.7512 8.28527 -47.7573
454 1 39.9402 8.28527 -47.7573
456 1 43.1292 8.28527 -47.7573
458 1 46.3182 8.28527 -47.7573
460 1 49.5072 8.28527 -47.7573
462 1 52.6962 8.28527 -47.7573
464 1 55.8852 8.28527 -47.7573
466 1 59.0742 8.28527 -47.7573
468 1 62.2632 8.28527 -47.7573
470 1 65.4522 8.28527 -47.7573
472 1 68.6412 8.28527 -47.7573
474 1 71.8302 8.28527 -47.7573
476 1 75.0192 8.28527 -47.7573
478 1 78.2082 8.28527 -47.7573
480 1 81.3972 8.28527 -47.7573
482 1 84.5862 8.28527 -47.7573
484 1 87.7752 8.28527 -47.7573
486 1 90.9642 8.28527 -47.7573
488 1 94.1532 8.28527 -47.7573
490 1 97.3422 8.28527 -47.7573
492 1 100.531 8.28527 -47.7573
494 1 103.72 8.28527 -47.7573
496 1 106.909 8.28527 -47.7573
498 1 110.098 8.28527 -47.7573
500 1 113.287 8.28527 -47.7573
502 1 116.476 8.28527 -47.7573
504 1 119.665 8.28527 -47.7573
506 1 122.854 8.28527 -47.7573
508 1 126.043 8.28527 -47.7573
510 1 129.232 8.28527 -47.7573
512 1 132.421 8.28527 -47.7573
514 1 135.61 8.28527 -47.7573
516 1 138.799 8.28527 -47.7573
518 1 141.988 8.28527 -47.7573
520 1 145.177 8.28527 -47.7573
522 1 148.366 8.28527 -47.7573
524 1 151.555 8.28527 -47.7573
526 1 154.744 8.28527 -47.7573
528 1 157.933 8.28527 -47.7573
530 1 161.122 8.28527 -47.7573
531 1 -47.7573 11.047 -47.7573
533 1 -44.5683 11.047 -47.7573
535 1 -41.3793 11.047 -47.7573
537 1 -38.1903 11.047 -47.7573
539 1 -35.0013 11.047 -47.7573
541 1 -31.8123 11.047 -47.7573
543 1 -28.6233 11.047 -47.7573
545 1 -25.4343 11.047 -47.7573
547 1 -22.2453 11.047 -47.7573
549 1 -19.0563 11.047 -47.7573
551 1 -15.8673 11.047 -47.7573
553 1 -12.6783 11.047 -47.7573
555 1 -9.48931 11.047 -47.7573
557 1 -6.30031 11.047 -47.7573
559 1 -3.11131 11.047 -47.7573
561 1 0.0776905 11.047 -47.7573
563 1 3.26669 11.047 -47.7573
565 1 6.45569 11.047 -47.7573
567 1 9.64469 11.047 -47.7573
569 1 12.8337 11.047 -47.7573
571 1 16.0227 11.047 -47.7573
573 1 19.2117 11.047 -47.7573
575 1 22.4007 11.047 -47.7573
577 1 25.5897 11.047 -47.7573
579 1 28.7787 11.047 -47.7573
581 1 31.9677 11.047 -47.7573
583 1 35.1567 11.047 -47.7573
585 1 38.3457 11.047 -47.7573
587 1 41.5347 11.047 -47.7573
589 1 44.7237 11.047 -47.7573
591 1 47.9127 11.047 -47.7573
593 1 51.1017 11.047 -47.7573
595 1 54.2907 11.047 -47.7573
597 1 57.4797 11.047 -47.7573
599 1 60.6687 11.047 -47.7573
601 1 63.8577 11.047 -47.7573
603 1 67.0467 11.047 -47.7573
605 1 70.2357 11.047 -47.7573
607 1 73.4247 11.047 -47.7573
609 1 76.6137 11.047 -47.7573
611 1 79.8027 11.047 -47.7573
613 1 82.9917 11.047 -47.7573
615 1 86.1807 11.047 -47.7573
617 1 89.3697 11.047 -47.7573
619 1 92.5587 11.047 -47.7573
621 1 95.7477 11.047 -47.7573
623 1 98.9367 11.047 -47.7573
625 1 102.126 11.047 -47.7573
627 1 105.315 11.047 -47.7573
629 1 108.504 11.047 -47.7573
631 1 111.693 11.047 -47.7573
633 1 114.882 11.047 -47.7573
635 1 118.071 11.047 -47.7573
637 1 121.26 11.047 -47.7573
639 1 124.449 11.047 -47.7573
641 1 127.638 11.047 -47.7573
643 1 130.827 11.047 -47.7573
645 1 134.016 11.047 -47.7573
647 1 137.205 11.047 -47.7573
649 1 140.394 11.047 -47.7573
651 1 143.583 11.047 -47.7573
653 1 146.772 11.047 -47.7573
655 1 149.961 11.047 -47.7573
657 1 153.15 11.047 -47.7573
659 1 156.339 11.047 -47.7573
661 1 159.528 11.047 -47.7573
663 1 162.717 11.047 -47.7573
665 1 -46.1628 13.8088 -47.7573
667 1 -42.9738 13.8088 -47.7573
669 1 -39.7848 13.8088 -47.7573
671 1 -36.5958 13.8088 -47.7573
673 1 -33.4068 13.8088 -47.7573
675 1 -30.2178 13.8088 -47.7573
677 1 -27.0288 13.8088 -47.7573
679 1 -23.8398 13.8088 -47.7573
681 1 -20.6508 13.8088 -47.7573
683 1 -17.4618 13.8088 -47.7573
685 1 -14.2728 13.8088 -47.7573
687 1 -11.0838 13.8088 -47.7573
689 1 -7.89481 13.8088 -47.7573
691 1 -4.70581 13.8088 -47.7573
693 1 -1.51681 13.8088 -47.7573
695 1 1.67219 13.8088 -47.7573
697 1 4.86119 13.8088 -47.7573
699 1 8.05019 13.8088 -47.7573
701 1 11.2392 13.8088 -47.7573
703 1 14.4282 13.8088 -47.7573
705 1 17.6172 13.8088 -47.7573
707 1 20.8062 13.8088 -47.7573
709 1 23.9952 13.8088 -47.7573
711 1 27.1842 13.8088 -47.7573
713 1 30.3732 13.8088 -47.7573
715 1 33.5622 13.8088 -47.7573
717 1 36.7512 13.8088 -47.7573
719 1 39.9402 13.8088 -47.7573
721 1 43.1292 13.8088 -47.7573
723 1 46.3182 13.8088 -47.7573
725 1 49.5072 13.8088 -47.7573
727 1 52.6962 13.8088 -47.7573
729 1 55.8852 13.8088 -47.7573
731 1 59.0742 13.8088 -47.7573
733 1 62.2632 13.8088 -47.7573
735 1 65.4522 13.8088 -47.7573
737 1 68.6412 13.8088 -47.7573
739 1 71.8302 13.8088 -47.7573
741 1 75.0192 13.8088 -47.7573
743 1 78.2082 13.8088 -47.7573
745 1 81.3972 13.8088 -47.7573
747 1 84.5862 13.8088 -47.7573
749 1 87.7752 13.8088 -47.7573
751 1 90.9642 13.8088 -47.7573
753 1 94.1532 13.8088 -47.7573
755 1 97.3422 13.8088 -47.7573
757 1 100.531 13.8088 -47.7573
759 1 103.72 13.8088 -47.7573
761 1 106.909 13.8088 -47.7573
763 1 110.098 13.8088 -47.7573
765 1 113.287 13.8088 -47.7573
767 1 116.476 13.8088 -47.7573
769 1 119.665 13.8088 -47.7573
771 1 122.854 13.8088 -47.7573
773 1 126.043 13.8088 -47.7573
775 1 129.232 13.8088 -47.7573
777 1 132.421 13.8088 -47.7573
779 1 135.61 13.8088 -47.7573
781 1 138.799 13.8088 -47.7573
783 1 141.988 13.8088 -47.7573
785 1 145.177 13.8088 -47.7573
787 1 148.366 13.8088 -47.7573
789 1 151.555 13.8088 -47.7573
791 1 154.744 13.8088 -47.7573
793 1 157.933 13.8088 -47.7573
795 1 161.122 13.8088 -47.7573
796 1 -47.7573 16.5705 -47.7573
798 1 -44.5683 16.5705 -47.7573
800 1 -41.3793 16.5705 -47.7573
802 1 -38.1903 16.5705 -47.7573
804 1 -35.0013 16.5705 -47.7573
806 1 -31.8123 16.5705 -47.7573
808 1 -28.6233 16.5705 -47.7573
810 1 -25.4343 16.5705 -47.7573
812 1 -22.2453 16.5705 -47.7573
814 1 -19.0563 16.5705 -47.7573
816 1 -15.8673 16.5705 -47.7573
818 1 -12.6783 16.5705 -47.7573
820 1 -9.48931 16.5705 -47.7573
822 1 -6.30031 16.5705 -47.7573
824 1 -3.11131 16.5705 -47.7573
826 1 0.0776905 16.5705 -47.7573
828 1 3.26669 16.5705 -47.7573
830 1 6.45569 16.5705 -47.7573
832 1 9.64469 16.5705 -47.7573
834 1 12.8337 16.5705 -47.7573
836 1 16.0227 16.5705 -47.7573
838 1 19.2117 16.5705 -47.7573
840 1 22.4007 16.5705 -47.7573
842 1 25.5897 16.5705 -47.7573
844 1 28.7787 16.5705 -47.7573
846 1 31.9677 16.5705 -47.7573
848 1 35.1567 16.5705 -47.7573
850 1 38.3457 16.5705 -47.7573
852 1 41.5347 16.5705 -47.7573
854 1 44.7237 16.5705 -47.7573
856 1 47.9127 16.5705 -47.7573
858 1 51.1017 16.5705 -47.7573
860 1 54.2907 16.5705 -47.7573
862 1 57.4797 16.5705 -47.7573
864 1 60.6687 16.5705 -47.7573
866 1 63.8577 16.5705 -47.7573
868 1 67.0467 16.5705 -47.7573
870 1 70.2357 16.5705 -47.7573
872 1 73.4247 16.5705 -47.7573
874 1 76.6137 16.5705 -47.7573
876 1 79.8027 16.5705 -47.7573
878 1 82.9917 16.5705 -47.7573
880 1 86.1807 16.5705 -47.7573
882 1 89.3697 16.5705 -47.7573
884 1 92.5587 16.5705 -47.7573
886 1 95.7477 16.5705 -47.7573
888 1 98.9367 16.5705 -47.7573
890 1 102.126 16.5705 -47.7573
892 1 105.315 16.5705 -47.7573
894 1 108.504 16.5705 -47.7573
896 1 111.693 16.5705 -47.7573
898 1 114.882 16.5705 -47.7573
900 1 118.071 16.5705 -47.7573
902 1 121.26 16.5705 -47.7573
904 1 124.449 16.5705 -47.7573
906 1 127.638 16.5705 -47.7573
908 1 130.827 16.5705 -47.7573
910 1 134.016 16.5705 -47.7573
912 1 137.205 16.5705 -47.7573
914 1 140.394 16.5705 -47.7573
916 1 143.583 16.5705 -47.7573
918 1 146.772 16.5705 -47.7573
920 1 149.961 16.5705 -47.7573
922 1 153.15 16.5705 -47.7573
924 1 156.339 16.5705 -47.7573
926 1 159.528 16.5705 -47.7573
928 1 162.717 16.5705 -47.7573
930 1 -46.1628 19.3323 -47.7573
932 1 -42.9738 19.3323 -47.7573
934 1 -39.7848 19.3323 -47.7573
936 1 -36.5958 19.3323 -47.7573
938 1 -33.4068 19.3323 -47.7573
940 1 -30.2178 19.3323 -47.7573
942 1 -27.0288 19.3323 -47.7573
944 1 -23.8398 19.3323 -47.7573
946 1 -20.6508 19.3323 -47.7573
948 1 -17.4618 19.3323 -47.7573
950 1 -14.2728 19.3323 -47.7573
952 1 -11.0838 19.3323 -47.7573
954 1 -7.89481 19.3323 -47.7573
956 1 -4.70581 19.3323 -47.7573
958 1 -1.51681 19.3323 -47.7573
960 1 1.67219 19.3323 -47.7573
962 1 4.86119 19.3323 -47.7573
964 1 8.05019 19.3323 -47.7573
966 1 11.2392 19.3323 -47.7573
968 1 14.4282 19.3323 -47.7573
970 1 17.6172 19.3323 -47.7573
972 1 20.8062 19.3323 -47.7573
974 1 23.9952 19.3323 -47.7573
976 1 27.1842 19.3323 -47.7573
978 1 30.3732 19.3323 -47.7573
980 1 33.5622 19.3323 -47.7573
982 1 36.7512 19.3323 -47.7573
984 1 39.9402 19.3323 -47.7573
986 1 43.1292 19.3323 -47.7573
988 1 46.3182 19.3323 -47.7573
990 1 49.5072 19.3323 -47.7573
992 1 52.6962 19.3323 -47.7573
994 1 55.8852 19.3323 -47.7573
996 1 59.0742 19.3323 -47.7573
998 1 62.2632 19.3323 -47.7573
1000 1 65.4522 19.3323 -47.7573
1002 1 68.6412 19.3323 -47.7573
1004 1 71.8302 19.3323 -47.7573
1006 1 75.0192 19.3323 -47.7573
1008 1 78.2082 19.3323 -47.7573
1010 1 81.3972 19.3323 -47.7573
1012 1 84.5862 19.3323 -47.7573
1014 1 87.7752 19.3323 -47.7573
1016 1 90.9642 19.3323 -47.7573
1018 1 94.1532 19.3323 -47.7573
1020 1 97.3422 19.3323 -47.7573
1022 1 100.531 19.3323 -47.7573
1024 1 103.72 19.3323 -47.7573
1026 1 106.909 19.3323 -47.7573
1028 1 110.098 19.3323 -47.7573
1030 1 113.287 19.3323 -47.7573
1032 1 116.476 19.3323 -47.7573
1034 1 119.665 19.3323 -47.7573
1036 1 122.854 19.3323 -47.7573
1038 1 126.043 19.3323 -47.7573
1040 1 129.232 19.3323 -47.7573
1042 1 132.421 19.3323 -47.7573
1044 1 135.61 19.3323 -47.7573
1046 1 138.799 19.3323 -47.7573
1048 1 141.988 19.3323 -47.7573
1050 1 145.177 19.3323 -47.7573
1052 1 148.366 19.3323 -47.7573
1054 1 151.555 19.3323 -47.7573
1056 1 154.744 19.3323 -47.7573
1058 1 157.933 19.3323 -47.7573
1060 1 161.122 19.3323 -47.7573
1061 1 -47.7573 22.094 -47.7573
1063 1 -44.5683 22.094 -47.7573
1065 1 -41.3793 22.094 -47.7573
1067 1 -38.1903 22.094 -47.7573
1069 1 -35.0013 22.094 -47.7573
1071 1 -31.8123 22.094 -47.7573
1073 1 -28.6233 22.094 -47.7573
1075 1 -25.4343 22.094 -47.7573
1077 1 -22.2453 22.094 -47.7573
1079 1 -19.0563 22.094 -47.7573
1081 1 -15.8673 22.094 -47.7573
1083 1 -12.6783 22.094 -47.7573
1085 1 -9.48931 22.094 -47.7573
1087 1 -6.30031 22.094 -47.7573
1089 1 -3.11131 22.094 -47.7573
1091 1 0.0776905 22.094 -47.7573
1093 1 3.26669 22.094 -47.7573
1095 1 6.45569 22.094 -47.7573
1097 1 9.64469 22.094 -47.7573
1099 1 12.8337 22.094 -47.7573
1101 1 16.0227 22.094 -47.7573
1103 1 19.2117 22.094 -47.7573
1105 1 22.4007 22.094 -47.7573
1107 1 25.5897 22.094 -47.7573
1109 1 28.7787 22.094 -47.7573
1111 1 31.9677 22.094 -47.7573
1113 1 35.1567 22.094 -47.7573
1115 1 38.3457 22.094 -47.7573
1117 1 41.5347 22.094 -47.7573
1119 1 44.7237 22.094 -47.7573
1121 1 47.9127 22.094 -47.7573
1123 1 51.1017 22.094 -47.7573
1125 1 54.2907 22.094 -47.7573
1127 1 57.4797 22.094 -47.7573
1129 1 60.6687 22.094 -47.7573
1131 1 63.8577 22.094 -47.7573
1133 1 67.0467 22.094 -47.7573
1135 1 70.2357 22.094 -47.7573
1137 1 73.4247 22.094 -47.7573
1139 1 76.6137 22.094 -47.7573
1141 1 79.8027 22.094 -47.7573
1143 1 82.9917 22.094 -47.7573
1145 1 86.1807 22.094 -47.7573
1147 1 89.3697 22.094 -47.7573
1149 1 92.5587 22.094 -47.7573
1151 1 95.7477 22.094 -47.7573
1153 1 98.9367 22.094 -47.7573
1155 1 102.126 22.094 -47.7573
1157 1 105.315 22.094 -47.7573
1159 1 108.504 22.094 -47.7573
1161 1 111.693 22.094 -47.7573
1163 1 114.882 22.094 -47.7573
1165 1 118.071 22.094 -47.7573
1167 1 121.26 22.094 -47.7573
1169 1 124.449 22.094 -47.7573
1171 1 127.638 22.094 -47.7573
1173 1 130.827 22.094 -47.7573
1175 1 134.016 22.094 -47.7573
1177 1 137.205 22.094 -47.7573
1179 1 140.394 22.094 -47.7573
1181 1 143.583 22.094 -47.7573
1183 1 146.772 22.094 -47.7573
1185 1 149.961 22.094 -47.7573
1187 1 153.15 22.094 -47.7573
1189 1 156.339 22.094 -47.7573
1191 1 159.528 22.094 -47.7573
1193 1 162.717 22.094 -47.7573
1195 1 -46.1628 24.8558 -47.7573
1197 1 -42.9738 24.8558 -47.7573
1199 1 -39.7848 24.8558 -47.7573
1201 1 -36.5958 24.8558 -47.7573
1203 1 -33.4068 24.8558 -47.7573
1205 1 -30.2178 24.8558 -47.7573
1207 1 -27.0288 24.8558 -47.7573
1209 1 -23.8398 24.8558 -47.7573
1211 1 -20.6508 24.8558 -47.7573
1213 1 -17.4618 24.8558 -47.7573
1215 1 -14.2728 24.8558 -47.7573
1217 1 -11.0838 24.8558 -47.7573
1219 1 -7.89481 24.8558 -47.7573
1221 1 -4.70581 24.8558 -47.7573
1223 1 -1.51681 24.8558 -47.7573
1225 1 1.67219 24.8558 -47.7573
1227 1 4.86119 24.8558 -47.7573
1229 1 8.05019 24.8558 -47.7573
1231 1 11.2392 24.8558 -47.7573
1233 1 14.4282 24.8558 -47.7573
1235 1 17.6172 24.8558 -47.7573
1237 1 20.8062 24.8558 -47.7573
1239 1 23.9952 24.8558 -47.7573
1241 1 27.1842 24.8558 -47.7573
1243 1 30.3732 24.8558 -47.7573
1245 1 33.5622 24.8558 -47.7573
1247 1 36.7512 24.8558 -47.7573
1249 1 39.9402 24.8558 -47.7573
1251 1 43.1292 24.8558 -47.7573
1253 1 46.3182 24.8558 -47.7573
1255 1 49.5072 24.8558 -47.7573
1257 1 52.6962 24.8558 -47.7573
1259 1 55.8852 24.8558 -47.7573
1261 1 59.0742 24.8558 -47.7573
1263 1 62.2632 24.8558 -47.7573
1265 1 65.4522 24.8558 -47.7573
1267 1 68.6412 24.8558 -47.7573
1269 1 71.8302 24.8558 -47.7573
1271 1 75.0192 24.8558 -47.7573
1273 1 78.2082 24.8558 -47.7573
1275 1 81.3972 24.8558 -47.7573
1277 1 84.5862 24.8558 -47.7573
1279 1 87.7752 24.8558 -47.7573
1281 1 90.9642 24.8558 -47.7573
1283 1 94.1532 24.8558 -47.7573
1285 1 97.3422 24.8558 -47.7573
1287 1 100.531 24.8558 -47.7573
1289 1 103.72 24.8558 -47.7573
1291 1 106.909 24.8558 -47.7573
1293 1 110.098 24.8558 -47.7573
1295 1 113.287 24.8558 -47.7573
1297 1 116.476 24.8558 -47.7573
1299 1 119.665 24.8558 -47.7573
1301 1 122.854 24.8558 -47.7573
1303 1 126.043 24.8558 -47.7573
1305 1 129.232 24.8558 -47.7573
1307 1 132.421 24.8558 -47.7573
1309 1 135.61 24.8558 -47.7573
1311 1 138.799 24.8558 -47.7573
1313 1 141.988 24.8558 -47.7573
1315 1 145.177 24.8558 -47.7573
1317 1 148.366 24.8558 -47.7573
1319 1 151.555 24.8558 -47.7573
1321 1 154.744 24.8558 -47.7573
1323 1 157.933 24.8558 -47.7573
1325 1 161.122 24.8558 -47.7573
1326 1 -47.7573 27.6176 -47.7573
1328 1 -44.5683 27.6176 -47.7573
1330 1 -41.3793 27.6176 -47.7573
1332 1 -38.1903 27.6176 -47.7573
1334 1 -35.0013 27.6176 -47.7573
1336 1 -31.8123 27.6176 -47.7573
1338 1 -28.6233 27.6176 -47.7573
1340 1 -25.4343 27.6176 -47.7573
1342 1 -22.2453 27.6176 -47.7573
1344 1 -19.0563 27.6176 -47.7573
1346 1 -15.8673 27.6176 -47.7573
1348 1 -12.6783 27.6176 -47.7573
1350 1 -9.48931 27.6176 -47.7573
1352 1 -6.30031 27.6176 -47.7573
1354 1 -3.11131 27.6176 -47.7573
1356 1 0.0776905 27.6176 -47.7573
1358 1 3.26669 27.6176 -47.7573
1360 1 6.45569 27.6176 -47.7573
1362 1 9.64469 27.6176 -47.7573
1364 1 12.8337 27.6176 -47.7573
1366 1 16.0227 27.6176 -47.7573
1368 1 19.2117 27.6176 -47.7573
1370 1 22.4007 27.6176 -47.7573
1372 1 25.5897 27.6176 -47.7573
1374 1 28.7787 27.6176 -47.7573
1376 1 31.9677 27.6176 -47.7573
1378 1 35.1567 27.6176 -47.7573
1380 1 38.3457 27.6176 -47.7573
1382 1 41.5347 27.6176 -47.7573
1384 1 44.7237 27.6176 -47.7573
1386 1 47.9127 27.6176 -47.7573
1388 1 51.1017 27.6176 -47.7573
1390 1 54.2907 27.6176 -47.7573
1392 1 57.4797 27.6176 -47.7573
1394 1 60.6687 27.6176 -47.7573
1396 1 63.8577 27.6176 -47.7573
1398 1 67.0467 27.6176 -47.7573
1400 1 70.2357 27.6176 -47.7573
1402 1 73.4247 27.6176 -47.7573
1404 1 76.6137 27.6176 -47.7573
1406 1 79.8027 27.6176 -47.7573
1408 1 82.9917 27.6176 -47.7573
1410 1 86.1807 27.6176 -47.7573
1412 1 89.3697 27.6176 -47.7573
1414 1 92.5587 27.6176 -47.7573
1416 1 95.7477 27.6176 -47.7573
1418 1 98.9367 27.6176 -47.7573
1420 1 102.126 27.6176 -47.7573
1422 1 105.315 27.6176 -47.7573
1424 1 108.504 27.6176 -47.7573
1426 1 111.693 27.6176 -47.7573
1428 1 114.882 27.6176 -47.7573
1430 1 118.071 27.6176 -47.7573
1432 1 121.26 27.6176 -47.7573
1434 1 124.449 27.6176 -47.7573
1436 1 127.638 27.6176 -47.7573
1438 1 130.827 27.6176 -47.7573
1440 1 134.016 27.6176 -47.7573
1442 1 137.205 27.6176 -47.7573
1444 1 140.394 27.6176 -47.7573
1446 1 143.583 27.6176 -47.7573
1448 1 146.772 27.6176 -47.7573
1450 1 149.961 27.6176 -47.7573
1452 1 153.15 27.6176 -47.7573
1454 1 156.339 27.6176 -47.7573
1456 1 159.528 27.6176 -47.7573
1458 1 162.717 27.6176 -47.7573
1460 1 -46.1628 30.3793 -47.7573
1462 1 -42.9738 30.3793 -47.7573
1464 1 -39.7848 30.3793 -47.7573
1466 1 -36.5958 30.3793 -47.7573
1468 1 -33.4068 30.3793 -47.7573
1470 1 -30.2178 30.3793 -47.7573
1472 1 -27.0288 30.3793 -47.7573
1474 1 -23.8398 30.3793 -47.7573
1476 1 -20.6508 30.3793 -47.7573
1478 1 -17.4618 30.3793 -47.7573
1480 1 -14.2728 30.3793 -47.7573
1482 1 -11.0838 30.3793 -47.7573
1484 1 -7.89481 30.3793 -47.7573
1486 1 -4.70581 30.3793 -47.7573
1488 1 -1.51681 30.3793 -47.7573
1490 1 1.67219 30.3793 -47.7573
1492 1 4.86119 30.3793 -47.7573
1494 1 8.05019 30.3793 -47.7573
1496 1 11.2392 30.3793 -47.7573
1498 1 14.4282 30.3793 -47.7573
1500 1 17.6172 30.3793 -47.7573
1502 1 20.8062 30.3793 -47.7573
1504 1 23.9952 30.3793 -47.7573
1506 1 27.1842 30.3793 -47.7573
1508 1 30.3732 30.3793 -47.7573
1510 1 33.5622 30.3793 -47.7573
1512 1 36.7512 30.3793 -47.7573
1514 1 39.9402 30.3793 -47.7573
1516 1 43.1292 30.3793 -47.7573
1518 1 46.3182 30.3793 -47.7573
1520 1 49.5072 30.3793 -47.7573
1522 1 52.6962 30.3793 -47.7573
1524 1 55.8852 30.3793 -47.7573
1526 1 59.0742 30.3793 -47.7573
1528 1 62.2632 30.3793 -47.7573
1530 1 65.4522 30.3793 -47.7573
1532 1 68.6412 30.3793 -47.7573
1534 1 71.8302 30.3793 -47.7573
1536 1 75.0192 30.3793 -47.7573
1538 1 78.2082 30.3793 -47.7573
1540 1 81.3972 30.3793 -47.7573
1542 1 84.5862 30.3793 -47.7573
1544 1 87.7752 30.3793 -47.7573
1546 1 90.9642 30.3793 -47.7573
1548 1 94.1532 30.3793 -47.7573
1550 1 97.3422 30.3793 -47.7573
1552 1 100.531 30.3793 -47.7573
1554 1 103.72 30.3793 -47.7573
1556 1 106.909 30.3793 -47.7573
1558 1 110.098 30.3793 -47.7573
1560 1 113.287 30.3793 -47.7573
1562 1 116.476 30.3793 -47.7573
1564 1 119.665 30.3793 -47.7573
1566 1 122.854 30.3793 -47.7573
1568 1 126.043 30.3793 -47.7573
1570 1 129.232 30.3793 -47.7573
1572 1 132.421 30.3793 -47.7573
1574 1 135.61 30.3793 -47.7573
1576 1 138.799 30.3793 -47.7573
1578 1 141.988 30.3793 -47.7573
1580 1 145.177 30.3793 -47.7573
1582 1 148.366 30.3793 -47.7573
1584 1 151.555 30.3793 -47.7573
1586 1 154.744 30.3793 -47.7573
1588 1 157.933 30.3793 -47.7573
1590 1 161.122 30.3793 -47.7573
1591 1 -47.7573 33.1411 -47.7573
1592 1 -44.5683 33.1411 -47.7573
1593 1 -41.3793 33.1411 -47.7573
1594 1 -38.1903 33.1411 -47.7573
1595 1 -35.0013 33.1411 -47.7573
1596 1 -31.8123 33.1411 -47.7573
1597 1 -28.6233 33.1411 -47.7573
1598 1 -25.4343 33.1411 -47.7573
1599 1 -22.2453 33.1411 -47.7573
1600 1 -19.0563 33.1411 -47.7573
1601 1 -15.8673 33.1411 -47.7573
1602 1 -12.6783 33.1411 -47.7573
1603 1 -9.48931 33.1411 -47.7573
1604 1 -6.30031 33.1411 -47.7573
1605 1 -3.11131 33.1411 -47.7573
1606 1 0.0776905 33.1411 -47.7573
1607 1 3.26669 33.1411 -47.7573
1608 1 6.45569 33.1411 -47.7573
1609 1 9.64469 33.1411 -47.7573
1610 1 12.8337 33.1411 -47.7573
1611 1 16.0227 33.1411 -47.7573
1612 1 19.2117 33.1411 -47.7573
1613 1 22.4007 33.1411 -47.7573
1614 1 25.5897 33.1411 -47.7573
1615 1 28.7787 33.1411 -47.7573
1616 1 31.9677 33.1411 -47.7573
1617 1 35.1567 33.1411 -47.7573
1618 1 38.3457 33.1411 -47.7573
1619 1 41.5347 33.1411 -47.7573
1620 1 44.7237 33.1411 -47.7573
1621 1 47.9127 33.1411 -47.7573
1622 1 51.1017 33.1411 -47.7573
1623 1 54.2907 33.1411 -47.7573
1624 1 57.4797 33.1411 -47.7573
1625 1 60.6687 33.1411 -47.7573
1626 1 63.8577 33.1411 -47.7573
1627 1 67.0467 33.1411 -47.7573
1628 1 70.2357 33.1411 -47.7573
1629 1 73.4247 33.1411 -47.7573
1630 1 76.6137 33.1411 -47.7573
1631 1 79.8027 33.1411 -47.7573
1632 1 82.9917 33.1411 -47.7573
1633 1 86.1807 33.1411 -47.7573
1634 1 89.3697 33.1411 -47.7573
1635 1 92.5587 33.1411 -47.7573
1636 1 95.7477 33.1411 -47.7573
1637 1 98.9367 33.1411 -47.7573
1638 1 102.126 33.1411 -47.7573
1639 1 105.315 33.1411 -47.7573
1640 1 108.504 33.1411 -47.7573
1641 1 111.693 33.1411 -47.7573
1642 1 114.882 33.1411 -47.7573
1643 1 118.071 33.1411 -47.7573
1644 1 121.26 33.1411 -47.7573
1645 1 124.449 33.1411 -47.7573
1646 1 127.638 33.1411 -47.7573
1647 1 130.827 33.1411 -47.7573
1648 1 134.016 33.1411 -47.7573
1649 1 137.205 33.1411 -47.7573
1650 1 140.394 33.1411 -47.7573
1651 1 143.583 33.1411 -47.7573
1652 1 146.772 33.1411 -47.7573
1653 1 149.961 33.1411 -47.7573
1654 1 153.15 33.1411 -47.7573
1655 1 156.339 33.1411 -47.7573
1656 1 159.528 33.1411 -47.7573
1657 1 162.717 33.1411 -47.7573
2 1 -46.1948 1.01668 -39.4726
4 1 -43.0058 1.01668 -39.4726
6 1 -39.8168 1.01668 -39.4726
8 1 -36.6278 1.01668 -39.4726
10 1 -33.4388 1.01668 -39.4726
12 1 -30.2498 1.01668 -39.4726
14 1 -27.0608 1.01668 -39.4726
16 1 -23.8718 1.01668 -39.4726
18 1 -20.6828 1.01668 -39.4726
20 1 -17.4938 1.01668 -39.4726
22 1 -14.3048 1.01668 -39.4726
24 1 -11.1158 1.01668 -39.4726
26 1 -7.9268 1.01668 -39.4726
28 1 -4.7378 1.01668 -39.4726
30 1 -1.5488 1.01668 -39.4726
32 1 1.6402 1.01668 -39.4726
34 1 4.8292 1.01668 -39.4726
36 1 8.0182 1.01668 -39.4726
38 1 11.2072 1.01668 -39.4726
40 1 14.3962 1.01668 -39.4726
42 1 17.5852 1.01668 -39.4726
44 1 20.7742 1.01668 -39.4726
46 1 23.9632 1.01668 -39.4726
48 1 27.1522 1.01668 -39.4726
50 1 30.3412 1.01668 -39.4726
52 1 33.5302 1.01668 -39.4726
54 1 36.7192 1.01668 -39.4726
56 1 39.9082 1.01668 -39.4726
58 1 43.0972 1.01668 -39.4726
60 1 46.2862 1.01668 -39.4726
62 1 49.4752 1.01668 -39.4726
64 1 52.6642 1.01668 -39.4726
66 1 55.8532 1.01668 -39.4726
68 1 59.0422 1.01668 -39.4726
70 1 62.2312 1.01668 -39.4726
72 1 65.4202 1.01668 -39.4726
74 1 68.6092 1.01668 -39.4726
76 1 71.7982 1.01668 -39.4726
78 1 74.9872 1.01668 -39.4726
80 1 78.1762 1.01668 -39.4726
82 1 81.3652 1.01668 -39.4726
84 1 84.5542 1.01668 -39.4726
86 1 87.7432 1.01668 -39.4726
88 1 90.9322 1.01668 -39.4726
90 1 94.1212 1.01668 -39.4726
92 1 97.3102 1.01668 -39.4726
94 1 100.499 1.01668 -39.4726
96 1 103.688 1.01668 -39.4726
98 1 106.877 1.01668 -39.4726
100 1 110.066 1.01668 -39.4726
102 1 113.255 1.01668 -39.4726
104 1 116.444 1.01668 -39.4726
106 1 119.633 1.01668 -39.4726
108 1 122.822 1.01668 -39.4726
110 1 126.011 1.01668 -39.4726
112 1 129.2 1.01668 -39.4726
114 1 132.389 1.01668 -39.4726
116 1 135.578 1.01668 -39.4726
118 1 138.767 1.01668 -39.4726
120 1 141.956 1.01668 -39.4726
122 1 145.145 1.01668 -39.4726
124 1 148.334 1.01668 -39.4726
126 1 151.523 1.01668 -39.4726
128 1 154.712 1.01668 -39.4726
130 1 157.901 1.01668 -39.4726
132 1 161.09 1.01668 -39.4726
134 1 -47.7572 3.68225 -39.4898
136 1 -44.6003 3.77843 -39.4726
138 1 -41.4113 3.77843 -39.4726
140 1 -38.2223 3.77843 -39.4726
142 1 -35.0333 3.77843 -39.4726
144 1 -31.8443 3.77843 -39.4726
146 1 -28.6553 3.77843 -39.4726
148 1 -25.4663 3.77843 -39.4726
150 1 -22.2773 3.77843 -39.4726
152 1 -19.0883 3.77843 -39.4726
154 1 -15.8993 3.77843 -39.4726
156 1 -12.7103 3.77843 -39.4726
158 1 -9.5213 3.77843 -39.4726
160 1 -6.3323 3.77843 -39.4726
162 1 -3.1433 3.77843 -39.4726
164 1 0.0456966 3.77843 -39.4726
166 1 3.2347 3.77843 -39.4726
168 1 6.4237 3.77843 -39.4726
170 1 9.6127 3.77843 -39.4726
172 1 12.8017 3.77843 -39.4726
174 1 15.9907 3.77843 -39.4726
176 1 19.1797 3.77843 -39.4726
178 1 22.3687 3.77843 -39.4726
180 1 25.5577 3.77843 -39.4726
182 1 28.7467 3.77843 -39.4726
184 1 31.9357 3.77843 -39.4726
186 1 35.1247 3.77843 -39.4726
188 1 38.3137 3.77843 -39.4726
190 1 41.5027 3.77843 -39.4726
192 1 44.6917 3.77843 -39.4726
194 1 47.8807 3.77843 -39.4726