ITEM: TIMESTEP
19500
ITEM: NUMBER OF ATOMS
14121
ITEM: BOX BOUNDS ss ss ss
-8.6177620043586387e+01 6.3935879266242716e+02
-1.0231754111503553e+00 6.6934077655624307e+01
-8.6163183742903584e+01 4.9285791115947370e+02
ITEM: ATOMS id type x y z
1 1 -86.163 0 -86.163
3 1 -82.974 0 -86.163
5 1 -79.785 0 -86.163
7 1 -76.596 0 -86.163
9 1 -73.407 0 -86.163
11 1 -70.218 0 -86.163
13 1 -67.029 0 -86.163
15 1 -63.84 0 -86.163
17 1 -60.651 0 -86.163
19 1 -57.462 0 -86.163
21 1 -54.273 0 -86.163
23 1 -51.084 0 -86.163
25 1 -47.895 0 -86.163
27 1 -44.706 0 -86.163
29 1 -41.517 0 -86.163
31 1 -38.328 0 -86.163
33 1 -35.139 0 -86.163
35 1 -31.95 0 -86.163
37 1 -28.761 0 -86.163
39 1 -25.572 0 -86.163
41 1 -22.383 0 -86.163
43 1 -19.194 0 -86.163
45 1 -16.005 0 -86.163
47 1 -12.816 0 -86.163
49 1 -9.62697 0 -86.163
51 1 -6.43797 0 -86.163
53 1 -3.24897 0 -86.163
55 1 -0.0599694 0 -86.163
57 1 3.12903 0 -86.163
59 1 6.31803 0 -86.163
61 1 9.50703 0 -86.163
63 1 12.696 0 -86.163
65 1 15.885 0 -86.163
67 1 19.074 0 -86.163
69 1 22.263 0 -86.163
71 1 25.452 0 -86.163
73 1 28.641 0 -86.163
75 1 31.83 0 -86.163
77 1 35.019 0 -86.163
79 1 38.208 0 -86.163
81 1 41.397 0 -86.163
83 1 44.586 0 -86.163
85 1 47.775 0 -86.163
87 1 50.964 0 -86.163
89 1 54.153 0 -86.163
91 1 57.342 0 -86.163
93 1 60.531 0 -86.163
95 1 63.72 0 -86.163
97 1 66.909 0 -86.163
99 1 70.098 0 -86.163
101 1 73.287 0 -86.163
103 1 76.476 0 -86.163
105 1 79.665 0 -86.163
107 1 82.854 0 -86.163
109 1 86.043 0 -86.163
111 1 89.232 0 -86.163
113 1 92.421 0 -86.163
115 1 95.61 0 -86.163
117 1 98.799 0 -86.163
119 1 101.988 0 -86.163
121 1 105.177 0 -86.163
123 1 108.366 0 -86.163
125 1 111.555 0 -86.163
127 1 114.744 0 -86.163
129 1 117.933 0 -86.163
131 1 121.122 0 -86.163
133 1 124.311 0 -86.163
135 1 -84.5685 2.76176 -86.163
137 1 -81.3795 2.76176 -86.163
139 1 -78.1905 2.76176 -86.163
141 1 -75.0015 2.76176 -86.163
143 1 -71.8125 2.76176 -86.163
145 1 -68.6235 2.76176 -86.163
147 1 -65.4345 2.76176 -86.163
149 1 -62.2455 2.76176 -86.163
151 1 -59.0565 2.76176 -86.163
153 1 -55.8675 2.76176 -86.163
155 1 -52.6785 2.76176 -86.163
157 1 -49.4895 2.76176 -86.163
159 1 -46.3005 2.76176 -86.163
161 1 -43.1115 2.76176 -86.163
163 1 -39.9225 2.76176 -86.163
165 1 -36.7335 2.76176 -86.163
167 1 -33.5445 2.76176 -86.163
169 1 -30.3555 2.76176 -86.163
171 1 -27.1665 2.76176 -86.163
173 1 -23.9775 2.76176 -86.163
175 1 -20.7885 2.76176 -86.163
177 1 -17.5995 2.76176 -86.163
179 1 -14.4105 2.76176 -86.163
181 1 -11.2215 2.76176 -86.163
183 1 -8.03247 2.76176 -86.163
185 1 -4.84347 2.76176 -86.163
187 1 -1.65447 2.76176 -86.163
189 1 1.53453 2.76176 -86.163
191 1 4.72353 2.76176 -86.163
193 1 7.91253 2.76176 -86.163
195 1 11.1015 2.76176 -86.163
197 1 14.2905 2.76176 -86.163
199 1 17.4795 2.76176 -86.163
201 1 20.6685 2.76176 -86.163
203 1 23.8575 2.76176 -86.163
205 1 27.0465 2.76176 -86.163
207 1 30.2355 2.76176 -86.163
209 1 33.4245 2.76176 -86.163
211 1 36.6135 2.76176 -86.163
213 1 39.8025 2.76176 -86.163
215 1 42.9915 2.76176 -86.163
217 1 46.1805 2.76176 -86.163
219 1 49.3695 2.76176 -86.163
221 1 52.5585 2.76176 -86.163
223 1 55.7475 2.76176 -86.163
225 1 58.9365 2.76176 -86.163
227 1 62.1255 2.76176 -86.163
229 1 65.3145 2.76176 -86.163
231 1 68.5035 2.76176 -86.163
233 1 71.6925 2.76176 -86.163
235 1 74.8815 2.76176 -86.163
237 1 78.0705 2.76176 -86.163
239 1 81.2595 2.76176 -86.163
241 1 84.4485 2.76176 -86.163
243 1 87.6375 2.76176 -86.163
245 1 90.8265 2.76176 -86.163
247 1 94.0155 2.76176 -86.163
249 1 97.2045 2.76176 -86.163
251 1 100.394 2.76176 -86.163
253 1 103.583 2.76176 -86.163
255 1 106.772 2.76176 -86.163
257 1 109.961 2.76176 -86.163
259 1 113.15 2.76176 -86.163
261 1 116.339 2.76176 -86.163
263 1 119.528 2.76176 -86.163
265 1 122.717 2.76176 -86.163
266 1 -86.163 5.52351 -86.163
268 1 -82.974 5.52351 -86.163
270 1 -79.785 5.52351 -86.163
272 1 -76.596 5.52351 -86.163
274 1 -73.407 5.52351 -86.163
276 1 -70.218 5.52351 -86.163
278 1 -67.029 5.52351 -86.163
280 1 -63.84 5.52351 -86.163
282 1 -60.651 5.52351 -86.163
284 1 -57.462 5.52351 -86.163
286 1 -54.273 5.52351 -86.163
288 1 -51.084 5.52351 -86.163
290 1 -47.895 5.52351 -86.163
292 1 -44.706 5.52351 -86.163
294 1 -41.517 5.52351 -86.163
296 1 -38.328 5.52351 -86.163
298 1 -35.139 5.52351 -86.163
300 1 -31.95 5.52351 -86.163
302 1 -28.761 5.52351 -86.163
304 1 -25.572 5.52351 -86.163
306 1 -22.383 5.52351 -86.163
308 1 -19.194 5.52351 -86.163
310 1 -16.005 5.52351 -86.163
312 1 -12.816 5.52351 -86.163
314 1 -9.62697 5.52351 -86.163
316 1 -6.43797 5.52351 -86.163
318 1 -3.24897 5.52351 -86.163
320 1 -0.0599694 5.52351 -86.163
322 1 3.12903 5.52351 -86.163
324 1 6.31803 5.52351 -86.163
326 1 9.50703 5.52351 -86.163
328 1 12.696 5.52351 -86.163
330 1 15.885 5.52351 -86.163
332 1 19.074 5.52351 -86.163
334 1 22.263 5.52351 -86.163
336 1 25.452 5.52351 -86.163
338 1 28.641 5.52351 -86.163
340 1 31.83 5.52351 -86.163
342 1 35.019 5.52351 -86.163
344 1 38.208 5.52351 -86.163
346 1 41.397 5.52351 -86.163
348 1 44.586 5.52351 -86.163
350 1 47.775 5.52351 -86.163
352 1 50.964 5.52351 -86.163
354 1 54.153 5.52351 -86.163
356 1 57.342 5.52351 -86.163
358 1 60.531 5.52351 -86.163
360 1 63.72 5.52351 -86.163
362 1 66.909 5.52351 -86.163
364 1 70.098 5.52351 -86.163
366 1 73.287 5.52351 -86.163
368 1 76.476 5.52351 -86.163
370 1 79.665 5.52351 -86.163
372 1 82.854 5.52351 -86.163
374 1 86.043 5.52351 -86.163
376 1 89.232 5.52351 -86.163
378 1 92.421 5.52351 -86.163
380 1 95.61 5.52351 -86.163
382 1 98.799 5.52351 -86.163
384 1 101.988 5.52351 -86.163
386 1 105.177 5.52351 -86.163
388 1 108.366 5.52351 -86.163
390 1 111.555 5.52351 -86.163
392 1 114.744 5.52351 -86.163
394 1 117.933 5.52351 -86.163
396 1 121.122 5.52351 -86.163
398 1 124.311 5.52351 -86.163
400 1 -84.5685 8.28527 -86.163
402 1 -81.3795 8.28527 -86.163
404 1 -78.1905 8.28527 -86.163
406 1 -75.0015 8.28527 -86.163
408 1 -71.8125 8.28527 -86.163
410 1 -68.6235 8.28527 -86.163
412 1 -65.4345 8.28527 -86.163
414 1 -62.2455 8.28527 -86.163
416 1 -59.0565 8.28527 -86.163
418 1 -55.8675 8.28527 -86.163
420 1 -52.6785 8.28527 -86.163
422 1 -49.4895 8.28527 -86.163
424 1 -46.3005 8.28527 -86.163
426 1 -43.1115 8.28527 -86.163
428 1 -39.9225 8.28527 -86.163
430 1 -36.7335 8.28527 -86.163
432 1 -33.5445 8.28527 -86.163
434 1 -30.3555 8.28527 -86.163
436 1 -27.1665 8.28527 -86.163
438 1 -23.9775 8.28527 -86.163
440 1 -20.7885 8.28527 -86.163
442 1 -17.5995 8.28527 -86.163
444 1 -14.4105 8.28527 -86.163
446 1 -11.2215 8.28527 -86.163
448 1 -8.03247 8.28527 -86.163
450 1 -4.84347 8.28527 -86.163
452 1 -1.65447 8.28527 -86.163
454 1 1.53453 8.28527 -86.163
456 1 4.72353 8.28527 -86.163
458 1 7.91253 8.28527 -86.163
460 1 11.1015 8.28527 -86.163
462 1 14.2905 8.28527 -86.163
464 1 17.4795 8.28527 -86.163
466 1 20.6685 8.28527 -86.163
468 1 23.8575 8.28527 -86.163
470 1 27.0465 8.28527 -86.163
472 1 30.2355 8.28527 -86.163
474 1 33.4245 8.28527 -86.163
476 1 36.6135 8.28527 -86.163
478 1 39.8025 8.28527 -86.163
480 1 42.9915 8.28527 -86.163
482 1 46.1805 8.28527 -86.163
484 1 49.3695 8.28527 -86.163
486 1 52.5585 8.28527 -86.163
488 1 55.7475 8.28527 -86.163
490 1 58.9365 8.28527 -86.163
492 1 62.1255 8.28527 -86.163
494 1 65.3145 8.28527 -86.163
496 1 68.5035 8.28527 -86.163
498 1 71.6925 8.28527 -86.163
500 1 74.8815 8.28527 -86.163
502 1 78.0705 8.28527 -86.163
504 1 81.2595 8.28527 -86.163
506 1 84.4485 8.28527 -86.163
508 1 87.6375 8.28527 -86.163
510 1 90.8265 8.28527 -86.163
512 1 94.0155 8.28527 -86.163
514 1 97.2045 8.28527 -86.163
516 1 100.394 8.28527 -86.163
518 1 103.583 8.28527 -86.163
520 1 106.772 8.28527 -86.163
522 1 109.961 8.28527 -86.163
524 1 113.15 8.28527 -86.163
526 1 116.339 8.28527 -86.163
528 1 119.528 8.28527 -86.163
530 1 122.717 8.28527 -86.163
531 1 -86.163 11.047 -86.163
533 1 -82.974 11.047 -86.163
535 1 -79.785 11.047 -86.163
537 1 -76.596 11.047 -86.163
539 1 -73.407 11.047 -86.163
541 1 -70.218 11.047 -86.163
543 1 -67.029 11.047 -86.163
545 1 -63.84 11.047 -86.163
547 1 -60.651 11.047 -86.163
549 1 -57.462 11.047 -86.163
551 1 -54.273 11.047 -86.163
553 1 -51.084 11.047 -86.163
555 1 -47.895 11.047 -86.163
557 1 -44.706 11.047 -86.163
559 1 -41.517 11.047 -86.163
561 1 -38.328 11.047 -86.163
563 1 -35.139 11.047 -86.163
565 1 -31.95 11.047 -86.163
567 1 -28.761 11.047 -86.163
569 1 -25.572 11.047 -86.163
571 1 -22.383 11.047 -86.163
573 1 -19.194 11.047 -86.163
575 1 -16.005 11.047 -86.163
577 1 -12.816 11.047 -86.163
579 1 -9.62697 11.047 -86.163
581 1 -6.43797 11.047 -86.163
583 1 -3.24897 11.047 -86.163
585 1 -0.0599694 11.047 -86.163
587 1 3.12903 11.047 -86.163
589 1 6.31803 11.047 -86.163
591 1 9.50703 11.047 -86.163
593 1 12.696 11.047 -86.163
595 1 15.885 11.047 -86.163
597 1 19.074 11.047 -86.163
599 1 22.263 11.047 -86.163
601 1 25.452 11.047 -86.163
603 1 28.641 11.047 -86.163
605 1 31.83 11.047 -86.163
607 1 35.019 11.047 -86.163
609 1 38.208 11.047 -86.163
611 1 41.397 11.047 -86.163
613 1 44.586 11.047 -86.163
615 1 47.775 11.047 -86.163
617 1 50.964 11.047 -86.163
619 1 54.153 11.047 -86.163
621 1 57.342 11.047 -86.163
623 1 60.531 11.047 -86.163
625 1 63.72 11.047 -86.163
627 1 66.909 11.047 -86.163
629 1 70.098 11.047 -86.163
631 1 73.287 11.047 -86.163
633 1 76.476 11.047 -86.163
635 1 79.665 11.047 -86.163
637 1 82.854 11.047 -86.163
639 1 86.043 11.047 -86.163
641 1 89.232 11.047 -86.163
643 1 92.421 11.047 -86.163
645 1 95.61 11.047 -86.163
647 1 98.799 11.047 -86.163
649 1 101.988 11.047 -86.163
651 1 105.177 11.047 -86.163
653 1 108.366 11.047 -86.163
655 1 111.555 11.047 -86.163
657 1 114.744 11.047 -86.163
659 1 117.933 11.047 -86.163
661 1 121.122 11.047 -86.163
663 1 124.311 11.047 -86.163
665 1 -84.5685 13.8088 -86.163
667 1 -81.3795 13.8088 -86.163
669 1 -78.1905 13.8088 -86.163
671 1 -75.0015 13.8088 -86.163
673 1 -71.8125 13.8088 -86.163
675 1 -68.6235 13.8088 -86.163
677 1 -65.4345 13.8088 -86.163
679 1 -62.2455 13.8088 -86.163
681 1 -59.0565 13.8088 -86.163
683 1 -55.8675 13.8088 -86.163
685 1 -52.6785 13.8088 -86.163
687 1 -49.4895 13.8088 -86.163
689 1 -46.3005 13.8088 -86.163
691 1 -43.1115 13.8088 -86.163
693 1 -39.9225 13.8088 -86.163
695 1 -36.7335 13.8088 -86.163
697 1 -33.5445 13.8088 -86.163
699 1 -30.3555 13.8088 -86.163
701 1 -27.1665 13.8088 -86.163
703 1 -23.9775 13.8088 -86.163
705 1 -20.7885 13.8088 -86.163
707 1 -17.5995 13.8088 -86.163
709 1 -14.4105 13.8088 -86.163
711 1 -11.2215 13.8088 -86.163
713 1 -8.03247 13.8088 -86.163
715 1 -4.84347 13.8088 -86.163
717 1 -1.65447 13.8088 -86.163
719 1 1.53453 13.8088 -86.163
721 1 4.72353 13.8088 -86.163
723 1 7.91253 13.8088 -86.163
725 1 11.1015 13.8088 -86.163
727 1 14.2905 13.8088 -86.163
729 1 17.4795 13.8088 -86.163
731 1 20.6685 13.8088 -86.163
733 1 23.8575 13.8088 -86.163
735 1 27.0465 13.8088 -86.163
737 1 30.2355 13.8088 -86.163
739 1 33.4245 13.8088 -86.163
741 1 36.6135 13.8088 -86.163
743 1 39.8025 13.8088 -86.163
745 1 42.9915 13.8088 -86.163
747 1 46.1805 13.8088 -86.163
749 1 49.3695 13.8088 -86.163
751 1 52.5585 13.8088 -86.163
753 1 55.7475 13.8088 -86.163
755 1 58.9365 13.8088 -86.163
757 1 62.1255 13.8088 -86.163
759 1 65.3145 13.8088 -86.163
761 1 68.5035 13.8088 -86.163
763 1 71.6925 13.8088 -86.163
765 1 74.8815 13.8088 -86.163
767 1 78.0705 13.8088 -86.163
769 1 81.2595 13.8088 -86.163
771 1 84.4485 13.8088 -86.163
773 1 87.6375 13.8088 -86.163
775 1 90.8265 13.8088 -86.163
777 1 94.0155 13.8088 -86.163
779 1 97.2045 13.8088 -86.163
781 1 100.394 13.8088 -86.163
783 1 103.583 13.8088 -86.163
785 1 106.772 13.8088 -86.163
787 1 109.961 13.8088 -86.163
789 1 113.15 13.8088 -86.163
791 1 116.339 13.8088 -86.163
793 1 119.528 13.8088 -86.163
795 1 122.717 13.8088 -86.163
796 1 -86.163 16.5705 -86.163
798 1 -82.974 16.5705 -86.163
800 1 -79.785 16.5705 -86.163
802 1 -76.596 16.5705 -86.163
804 1 -73.407 16.5705 -86.163
806 1 -70.218 16.5705 -86.163
808 1 -67.029 16.5705 -86.163
810 1 -63.84 16.5705 -86.163
812 1 -60.651 16.5705 -86.163
814 1 -57.462 16.5705 -86.163
816 1 -54.273 16.5705 -86.163
818 1 -51.084 16.5705 -86.163
820 1 -47.895 16.5705 -86.163
822 1 -44.706 16.5705 -86.163
824 1 -41.517 16.5705 -86.163
826 1 -38.328 16.5705 -86.163
828 1 -35.139 16.5705 -86.163
830 1 -31.95 16.5705 -86.163
832 1 -28.761 16.5705 -86.163
834 1 -25.572 16.5705 -86.163
836 1 -22.383 16.5705 -86.163
838 1 -19.194 16.5705 -86.163
840 1 -16.005 16.5705 -86.163
842 1 -12.816 16.5705 -86.163
844 1 -9.62697 16.5705 -86.163
846 1 -6.43797 16.5705 -86.163
848 1 -3.24897 16.5705 -86.163
850 1 -0.0599694 16.5705 -86.163
852 1 3.12903 16.5705 -86.163
854 1 6.31803 16.5705 -86.163
856 1 9.50703 16.5705 -86.163
858 1 12.696 16.5705 -86.163
860 1 15.885 16.5705 -86.163
862 1 19.074 16.5705 -86.163
864 1 22.263 16.5705 -86.163
866 1 25.452 16.5705 -86.163
868 1 28.641 16.5705 -86.163
870 1 31.83 16.5705 -86.163
872 1 35.019 16.5705 -86.163
874 1 38.208 16.5705 -86.163
876 1 41.397 16.5705 -86.163
878 1 44.586 16.5705 -86.163
880 1 47.775 16.5705 -86.163
882 1 50.964 16.5705 -86.163
884 1 54.153 16.5705 -86.163
886 1 57.342 16.5705 -86.163
888 1 60.531 16.5705 -86.163
890 1 63.72 16.5705 -86.163
892 1 66.909 16.5705 -86.163
894 1 70.098 16.5705 -86.163
896 1 73.287 16.5705 -86.163
898 1 76.476 16.5705 -86.163
900 1 79.665 16.5705 -86.163
902 1 82.854 16.5705 -86.163
904 1 86.043 16.5705 -86.163
906 1 89.232 16.5705 -86.163
908 1 92.421 16.5705 -86.163
910 1 95.61 16.5705 -86.163
912 1 98.799 16.5705 -86.163
914 1 101.988 16.5705 -86.163
916 1 105.177 16.5705 -86.163
918 1 108.366 16.5705 -86.163
920 1 111.555 16.5705 -86.163
922 1 114.744 16.5705 -86.163
924 1 117.933 16.5705 -86.163
926 1 121.122 16.5705 -86.163
928 1 124.311 16.5705 -86.163
930 1 -84.5685 19.3323 -86.163
932 1 -81.3795 19.3323 -86.163
934 1 -78.1905 19.3323 -86.163
936 1 -75.0015 19.3323 -86.163
938 1 -71.8125 19.3323 -86.163
940 1 -68.6235 19.3323 -86.163
942 1 -65.4345 19.3323 -86.163
944 1 -62.2455 19.3323 -86.163
946 1 -59.0565 19.3323 -86.163
948 1 -55.8675 19.3323 -86.163
950 1 -52.6785 19.3323 -86.163
952 1 -49.4895 19.3323 -86.163
954 1 -46.3005 19.3323 -86.163
956 1 -43.1115 19.3323 -86.163
958 1 -39.9225 19.3323 -86.163
960 1 -36.7335 19.3323 -86.163
962 1 -33.5445 19.3323 -86.163
964 1 -30.3555 19.3323 -86.163
966 1 -27.1665 19.3323 -86.163
968 1 -23.9775 19.3323 -86.163
970 1 -20.7885 19.3323 -86.163
972 1 -17.5995 19.3323 -86.163
974 1 -14.4105 19.3323 -86.163
976 1 -11.2215 19.3323 -86.163
978 1 -8.03247 19.3323 -86.163
980 1 -4.84347 19.3323 -86.163
982 1 -1.65447 19.3323 -86.163
984 1 1.53453 19.3323 -86.163
986 1 4.72353 19.3323 -86.163
988 1 7.91253 19.3323 -86.163
990 1 11.1015 19.3323 -86.163
992 1 14.2905 19.3323 -86.163
994 1 17.4795 19.3323 -86.163
996 1 20.6685 19.3323 -86.163
998 1 23.8575 19.3323 -86.163
1000 1 27.0465 19.3323 -86.163
1002 1 30.2355 19.3323 -86.163
1004 1 33.4245 19.3323 -86.163
1006 1 36.6135 19.3323 -86.163
1008 1 39.8025 19.3323 -86.163
1010 1 42.9915 19.3323 -86.163
1012 1 46.1805 19.3323 -86.163
1014 1 49.3695 19.3323 -86.163
1016 1 52.5585 19.3323 -86.163
1018 1 55.7475 19.3323 -86.163
1020 1 58.9365 19.3323 -86.163
1022 1 62.1255 19.3323 -86.163
1024 1 65.3145 19.3323 -86.163
1026 1 68.5035 19.3323 -86.163
1028 1 71.6925 19.3323 -86.163
1030 1 74.8815 19.3323 -86.163
1032 1 78.0705 19.3323 -86.163
1034 1 81.2595 19.3323 -86.163
1036 1 84.4485 19.3323 -86.163
1038 1 87.6375 19.3323 -86.163
1040 1 90.8265 19.3323 -86.163
1042 1 94.0155 19.3323 -86.163
1044 1 97.2045 19.3323 -86.163
1046 1 100.394 19.3323 -86.163
1048 1 103.583 19.3323 -86.163
1050 1 106.772 19.3323 -86.163
1052 1 109.961 19.3323 -86.163
1054 1 113.15 19.3323 -86.163
1056 1 116.339 19.3323 -86.163
1058 1 119.528 19.3323 -86.163
1060 1 122.717 19.3323 -86.163
1061 1 -86.163 22.094 -86.163
1063 1 -82.974 22.094 -86.163
1065 1 -79.785 22.094 -86.163
1067 1 -76.596 22.094 -86.163
1069 1 -73.407 22.094 -86.163
1071 1 -70.218 22.094 -86.163
1073 1 -67.029 22.094 -86.163
1075 1 -63.84 22.094 -86.163
1077 1 -60.651 22.094 -86.163
1079 1 -57.462 22.094 -86.163
1081 1 -54.273 22.094 -86.163
1083 1 -51.084 22.094 -86.163
1085 1 -47.895 22.094 -86.163
1087 1 -44.706 22.094 -86.163
1089 1 -41.517 22.094 -86.163
1091 1 -38.328 22.094 -86.163
1093 1 -35.139 22.094 -86.163
1095 1 -31.95 22.094 -86.163
1097 1 -28.761 22.094 -86.163
1099 1 -25.572 22.094 -86.163
1101 1 -22.383 22.094 -86.163
1103 1 -19.194 22.094 -86.163
1105 1 -16.005 22.094 -86.163
1107 1 -12.816 22.094 -86.163
1109 1 -9.62697 22.094 -86.163
1111 1 -6.43797 22.094 -86.163
1113 1 -3.24897 22.094 -86.163
1115 1 -0.0599694 22.094 -86.163
1117 1 3.12903 22.094 -86.163
1119 1 6.31803 22.094 -86.163
1121 1 9.50703 22.094 -86.163
1123 1 12.696 22.094 -86.163
1125 1 15.885 22.094 -86.163
1127 1 19.074 22.094 -86.163
1129 1 22.263 22.094 -86.163
1131 1 25.452 22.094 -86.163
1133 1 28.641 22.094 -86.163
1135 1 31.83 22.094 -86.163
1137 1 35.019 22.094 -86.163
1139 1 38.208 22.094 -86.163
1141 1 41.397 22.094 -86.163
1143 1 44.586 22.094 -86.163
1145 1 47.775 22.094 -86.163
1147 1 50.964 22.094 -86.163
1149 1 54.153 22.094 -86.163
1151 1 57.342 22.094 -86.163
1153 1 60.531 22.094 -86.163
1155 1 63.72 22.094 -86.163
1157 1 66.909 22.094 -86.163
1159 1 70.098 22.094 -86.163
1161 1 73.287 22.094 -86.163
1163 1 76.476 22.094 -86.163
1165 1 79.665 22.094 -86.163
1167 1 82.854 22.094 -86.163
1169 1 86.043 22.094 -86.163
1171 1 89.232 22.094 -86.163
1173 1 92.421 22.094 -86.163
1175 1 95.61 22.094 -86.163
1177 1 98.799 22.094 -86.163
1179 1 101.988 22.094 -86.163
1181 1 105.177 22.094 -86.163
1183 1 108.366 22.094 -86.163
1185 1 111.555 22.094 -86.163
1187 1 114.744 22.094 -86.163
1189 1 117.933 22.094 -86.163
1191 1 121.122 22.094 -86.163
1193 1 124.311 22.094 -86.163
1195 1 -84.5685 24.8558 -86.163
1197 1 -81.3795 24.8558 -86.163
1199 1 -78.1905 24.8558 -86.163
1201 1 -75.0015 24.8558 -86.163
1203 1 -71.8125 24.8558 -86.163
1205 1 -68.6235 24.8558 -86.163
1207 1 -65.4345 24.8558 -86.163
1209 1 -62.2455 24.8558 -86.163
1211 1 -59.0565 24.8558 -86.163
1213 1 -55.8675 24.8558 -86.163
1215 1 -52.6785 24.8558 -86.163
1217 1 -49.4895 24.8558 -86.163
1219 1 -46.3005 24.8558 -86.163
1221 1 -43.1115 24.8558 -86.163
1223 1 -39.9225 24.8558 -86.163
1225 1 -36.7335 24.8558 -86.163
1227 1 -33.5445 24.8558 -86.163
1229 1 -30.3555 24.8558 -86.163
1231 1 -27.1665 24.8558 -86.163
1233 1 -23.9775 24.8558 -86.163
1235 1 -20.7885 24.8558 -86.163
1237 1 -17.5995 24.8558 -86.163
1239 1 -14.4105 24.8558 -86.163
1241 1 -11.2215 24.8558 -86.163
1243 1 -8.03247 24.8558 -86.163
1245 1 -4.84347 24.8558 -86.163
1247 1 -1.65447 24.8558 -86.163
1249 1 1.53453 24.8558 -86.163
1251 1 4.72353 24.8558 -86.163
1253 1 7.91253 24.8558 -86.163
1255 1 11.1015 24.8558 -86.163
1257 1 14.2905 24.8558 -86.163
1259 1 17.4795 24.8558 -86.163
1261 1 20.6685 24.8558 -86.163
1263 1 23.8575 24.8558 -86.163
1265 1 27.0465 24.8558 -86.163
1267 1 30.2355 24.8558 -86.163
1269 1 33.4245 24.8558 -86.163
1271 1 36.6135 24.8558 -86.163
1273 1 39.8025 24.8558 -86.163
1275 1 42.9915 24.8558 -86.163
1277 1 46.1805 24.8558 -86.163
1279 1 49.3695 24.8558 -86.163
1281 1 52.5585 24.8558 -86.163
1283 1 55.7475 24.8558 -86.163
1285 1 58.9365 24.8558 -86.163
1287 1 62.1255 24.8558 -86.163
1289 1 65.3145 24.8558 -86.163
1291 1 68.5035 24.8558 -86.163
1293 1 71.6925 24.8558 -86.163
1295 1 74.8815 24.8558 -86.163
1297 1 78.0705 24.8558 -86.163
1299 1 81.2595 24.8558 -86.163
1301 1 84.4485 24.8558 -86.163
1303 1 87.6375 24.8558 -86.163
1305 1 90.8265 24.8558 -86.163
1307 1 94.0155 24.8558 -86.163
1309 1 97.2045 24.8558 -86.163
1311 1 100.394 24.8558 -86.163
1313 1 103.583 24.8558 -86.163
1315 1 106.772 24.8558 -86.163
1317 1 109.961 24.8558 -86.163
1319 1 113.15 24.8558 -86.163
1321 1 116.339 24.8558 -86.163
1323 1 119.528 24.8558 -86.163
1325 1 122.717 24.8558 -86.163
1326 1 -86.163 27.6176 -86.163
1328 1 -82.974 27.6176 -86.163
1330 1 -79.785 27.6176 -86.163
1332 1 -76.596 27.6176 -86.163
1334 1 -73.407 27.6176 -86.163
1336 1 -70.218 27.6176 -86.163
1338 1 -67.029 27.6176 -86.163
1340 1 -63.84 27.6176 -86.163
1342 1 -60.651 27.6176 -86.163
1344 1 -57.462 27.6176 -86.163
1346 1 -54.273 27.6176 -86.163
1348 1 -51.084 27.6176 -86.163
1350 1 -47.895 27.6176 -86.163
1352 1 -44.706 27.6176 -86.163
1354 1 -41.517 27.6176 -86.163
1356 1 -38.328 27.6176 -86.163
1358 1 -35.139 27.6176 -86.163
1360 1 -31.95 27.6176 -86.163
1362 1 -28.761 27.6176 -86.163
1364 1 -25.572 27.6176 -86.163
1366 1 -22.383 27.6176 -86.163
1368 1 -19.194 27.6176 -86.163
1370 1 -16.005 27.6176 -86.163
1372 1 -12.816 27.6176 -86.163
1374 1 -9.62697 27.6176 -86.163
1376 1 -6.43797 27.6176 -86.163
1378 1 -3.24897 27.6176 -86.163
1380 1 -0.0599694 27.6176 -86.163
1382 1 3.12903 27.6176 -86.163
1384 1 6.31803 27.6176 -86.163
1386 1 9.50703 27.6176 -86.163
1388 1 12.696 27.6176 -86.163
1390 1 15.885 27.6176 -86.163
1392 1 19.074 27.6176 -86.163
1394 1 22.263 27.6176 -86.163
1396 1 25.452 27.6176 -86.163
1398 1 28.641 27.6176 -86.163
1400 1 31.83 27.6176 -86.163
1402 1 35.019 27.6176 -86.163
1404 1 38.208 27.6176 -86.163
1406 1 41.397 27.6176 -86.163
1408 1 44.586 27.6176 -86.163
1410 1 47.775 27.6176 -86.163
1412 1 50.964 27.6176 -86.163
1414 1 54.153 27.6176 -86.163
1416 1 57.342 27.6176 -86.163
1418 1 60.531 27.6176 -86.163
1420 1 63.72 27.6176 -86.163
1422 1 66.909 27.6176 -86.163
1424 1 70.098 27.6176 -86.163
1426 1 73.287 27.6176 -86.163
1428 1 76.476 27.6176 -86.163
1430 1 79.665 27.6176 -86.163
1432 1 82.854 27.6176 -86.163
1434 1 86.043 27.6176 -86.163
1436 1 89.232 27.6176 -86.163
1438 1 92.421 27.6176 -86.163
1440 1 95.61 27.6176 -86.163
1442 1 98.799 27.6176 -86.163
1444 1 101.988 27.6176 -86.163
1446 1 105.177 27.6176 -86.163
1448 1 108.366 27.6176 -86.163
1450 1 111.555 27.6176 -86.163
1452 1 114.744 27.6176 -86.163
1454 1 117.933 27.6176 -86.163
1456 1 121.122 27.6176 -86.163
1458 1 124.311 27.6176 -86.163
1460 1 -84.5685 30.3793 -86.163
1462 1 -81.3795 30.3793 -86.163
1464 1 -78.1905 30.3793 -86.163
1466 1 -75.0015 30.3793 -86.163
1468 1 -71.8125 30.3793 -86.163
1470 1 -68.6235 30.3793 -86.163
1472 1 -65.4345 30.3793 -86.163
1474 1 -62.2455 30.3793 -86.163
1476 1 -59.0565 30.3793 -86.163
1478 1 -55.8675 30.3793 -86.163
1480 1 -52.6785 30.3793 -86.163
1482 1 -49.4895 30.3793 -86.163
1484 1 -46.3005 30.3793 -86.163
1486 1 -43.1115 30.3793 -86.163
1488 1 -39.9225 30.3793 -86.163
1490 1 -36.7335 30.3793 -86.163
1492 1 -33.5445 30.3793 -86.163
1494 1 -30.3555 30.3793 -86.163
1496 1 -27.1665 30.3793 -86.163
1498 1 -23.9775 30.3793 -86.163
1500 1 -20.7885 30.3793 -86.163
1502 1 -17.5995 30.3793 -86.163
1504 1 -14.4105 30.3793 -86.163
1506 1 -11.2215 30.3793 -86.163
1508 1 -8.03247 30.3793 -86.163
1510 1 -4.84347 30.3793 -86.163
1512 1 -1.65447 30.3793 -86.163
1514 1 1.53453 30.3793 -86.163
1516 1 4.72353 30.3793 -86.163
1518 1 7.91253 30.3793 -86.163
1520 1 11.1015 30.3793 -86.163
1522 1 14.2905 30.3793 -86.163
1524 1 17.4795 30.3793 -86.163
1526 1 20.6685 30.3793 -86.163
1528 1 23.8575 30.3793 -86.163
1530 1 27.0465 30.3793 -86.163
1532 1 30.2355 30.3793 -86.163
1534 1 33.4245 30.3793 -86.163
1536 1 36.6135 30.3793 -86.163
1538 1 39.8025 30.3793 -86.163
1540 1 42.9915 30.3793 -86.163
1542 1 46.1805 30.3793 -86.163
1544 1 49.3695 30.3793 -86.163
1546 1 52.5585 30.3793 -86.163
1548 1 55.7475 30.3793 -86.163
1550 1 58.9365 30.3793 -86.163
1552 1 62.1255 30.3793 -86.163
1554 1 65.3145 30.3793 -86.163
1556 1 68.5035 30.3793 -86.163
1558 1 71.6925 30.3793 -86.163
1560 1 74.8815 30.3793 -86.163
1562 1 78.0705 30.3793 -86.163
1564 1 81.2595 30.3793 -86.163
1566 1 84.4485 30.3793 -86.163
1568 1 87.6375 30.3793 -86.163
1570 1 90.8265 30.3793 -86.163
1572 1 94.0155 30.3793 -86.163
1574 1 97.2045 30.3793 -86.163
1576 1 100.394 30.3793 -86.163
1578 1 103.583 30.3793 -86.163
1580 1 106.772 30.3793 -86.163
1582 1 109.961 30.3793 -86.163
1584 1 113.15 30.3793 -86.163
1586 1 116.339 30.3793 -86.163
1588 1 119.528 30.3793 -86.163
1590 1 122.717 30.3793 -86.163
1591 1 -86.163 33.1411 -86.163
1592 1 -82.974 33.1411 -86.163
1593 1 -79.785 33.1411 -86.163
1594 1 -76.596 33.1411 -86.163
1595 1 -73.407 33.1411 -86.163
1596 1 -70.218 33.1411 -86.163
1597 1 -67.029 33.1411 -86.163
1598 1 -63.84 33.1411 -86.163
1599 1 -60.651 33.1411 -86.163
1600 1 -57.462 33.1411 -86.163
1601 1 -54.273 33.1411 -86.163
1602 1 -51.084 33.1411 -86.163
1603 1 -47.895 33.1411 -86.163
1604 1 -44.706 33.1411 -86.163
1605 1 -41.517 33.1411 -86.163
1606 1 -38.328 33.1411 -86.163
1607 1 -35.139 33.1411 -86.163
1608 1 -31.95 33.1411 -86.163
1609 1 -28.761 33.1411 -86.163
1610 1 -25.572 33.1411 -86.163
1611 1 -22.383 33.1411 -86.163
1612 1 -19.194 33.1411 -86.163
1613 1 -16.005 33.1411 -86.163
1614 1 -12.816 33.1411 -86.163
1615 1 -9.62697 33.1411 -86.163
1616 1 -6.43797 33.1411 -86.163
1617 1 -3.24897 33.1411 -86.163
1618 1 -0.0599694 33.1411 -86.163
1619 1 3.12903 33.1411 -86.163
1620 1 6.31803 33.1411 -86.163
1621 1 9.50703 33.1411 -86.163
1622 1 12.696 33.1411 -86.163
1623 1 15.885 33.1411 -86.163
1624 1 19.074 33.1411 -86.163
1625 1 22.263 33.1411 -86.163
1626 1 25.452 33.1411 -86.163
1627 1 28.641 33.1411 -86.163
1628 1 31.83 33.1411 -86.163
1629 1 35.019 33.1411 -86.163
1630 1 38.208 33.1411 -86.163
1631 1 41.397 33.1411 -86.163
1632 1 44.586 33.1411 -86.163
1633 1 47.775 33.1411 -86.163
1634 1 50.964 33.1411 -86.163
1635 1 54.153 33.1411 -86.163
1636 1 57.342 33.1411 -86.163
1637 1 60.531 33.1411 -86.163
1638 1 63.72 33.1411 -86.163
1639 1 66.909 33.1411 -86.163
1640 1 70.098 33.1411 -86.163
1641 1 73.287 33.1411 -86.163
1642 1 76.476 33.1411 -86.163
1643 1 79.665 33.1411 -86.163
1644 1 82.854 33.1411 -86.163
1645 1 86.043 33.1411 -86.163
1646 1 89.232 33.1411 -86.163
1647 1 92.421 33.1411 -86.163
1648 1 95.61 33.1411 -86.163
1649 1 98.799 33.1411 -86.163
1650 1 101.988 33.1411 -86.163
1651 1 105.177 33.1411 -86.163
1652 1 108.366 33.1411 -86.163
1653 1 111.555 33.1411 -86.163
1654 1 114.744 33.1411 -86.163
1655 1 117.933 33.1411 -86.163
1656 1 121.122 33.1411 -86.163
1657 1 124.311 33.1411 -86.163
2 1 -84.6005 1.01668 -77.8783
4 1 -81.4115 1.01668 -77.8783
6 1 -78.2225 1.01668 -77.8783
8 1 -75.0335 1.01668 -77.8783
10 1 -71.8445 1.01668 -77.8783
12 1 -68.6555 1.01668 -77.8783
14 1 -65.4665 1.01668 -77.8783
16 1 -62.2775 1.01668 -77.8783
18 1 -59.0885 1.01668 -77.8783
20 1 -55.8995 1.01668 -77.8783
22 1 -52.7105 1.01668 -77.8783
24 1 -49.5215 1.01668 -77.8783
26 1 -46.3325 1.01668 -77.8783
28 1 -43.1435 1.01668 -77.8783
30 1 -39.9545 1.01668 -77.8783
32 1 -36.7655 1.01668 -77.8783
34 1 -33.5765 1.01668 -77.8783
36 1 -30.3875 1.01668 -77.8783
38 1 -27.1985 1.01668 -77.8783
40 1 -24.0095 1.01668 -77.8783
42 1 -20.8205 1.01668 -77.8783
44 1 -17.6315 1.01668 -77.8783
46 1 -14.4425 1.01668 -77.8783
48 1 -11.2535 1.01668 -77.8783
50 1 -8.06446 1.01668 -77.8783
52 1 -4.87546 1.01668 -77.8783
54 1 -1.68646 1.01668 -77.8783
56 1 1.50254 1.01668 -77.8783
58 1 4.69154 1.01668 -77.8783
60 1 7.88054 1.01668 -77.8783
62 1 11.0695 1.01668 -77.8783
64 1 14.2585 1.01668 -77.8783
66 1 17.4475 1.01668 -77.8783
68 1 20.6365 1.01668 -77.8783
70 1 23.8255 1.01668 -77.8783
72 1 27.0145 1.01668 -77.8783
74 1 30.2035 1.01668 -77.8783
76 1 33.3925 1.01668 -77.8783
78 1 36.5815 1.01668 -77.8783
80 1 39.7705 1.01668 -77.8783
82 1 42.9595 1.01668 -77.8783
84 1 46.1485 1.01668 -77.8783
86 1 49.3375 1.01668 -77.8783
88 1 52.5265 1.01668 -77.8783
90 1 55.7155 1.01668 -77.8783
92 1 58.9045 1.01668 -77.8783
94 1 62.0935 1.01668 -77.8783
96 1 65.2825 1.01668 -77.8783
98 1 68.4715 1.01668 -77.8783
100 1 71.6605 1.01668 -77.8783
102 1 74.8495 1.01668 -77.8783
104 1 78.0385 1.01668 -77.8783
106 1 81.2275 1.01668 -77.8783
108 1 84.4165 1.01668 -77.8783
110 1 87.6055 1.01668 -77.8783
112 1 90.7945 1.01668 -77.8783
114 1 93.9835 1.01668 -77.8783
116 1 97.1725 1.01668 -77.8783
118 1 100.362 1.01668 -77.8783
120 1 103.551 1.01668 -77.8783
122 1 106.74 1.01668 -77.8783
124 1 109.929 1.01668 -77.8783
126 1 113.118 1.01668 -77.8783
128 1 116.307 1.01668 -77.8783
130 1 119.496 1.01668 -77.8783
132 1 122.685 1.01668 -77.8783
134 1 -86.1628 3.68225 -77.8955
136 1 -83.006 3.77843 -77.8783
138 1 -79.817 3.77843 -77.8783
140 1 -76.628 3.77843 -77.8783
142 1 -73.439 3.77843 -77.8783
144 1 -70.25 3.77843 -77.8783
146 1 -67.061 3.77843 -77.8783
148 1 -63.872 3.77843 -77.8783
150 1 -60.683 3.77843 -77.8783
152 1 -57.494 3.77843 -77.8783
154 1 -54.305 3.77843 -77.8783
156 1 -51.116 3.77843 -77.8783
158 1 -47.927 3.77843 -77.8783
160 1 -44.738 3.77843 -77.8783
162 1 -41.549 3.77843 -77.8783
164 1 -38.36 3.77843 -77.8783
166 1 -35.171 3.77843 -77.8783
168 1 -31.982 3.77843 -77.8783
170 1 -28.793 3.77843 -77.8783
172 1 -25.604 3.77843 -77.8783
174 1 -22.415 3.77843 -77.8783
176 1 -19.226 3.77843 -77.8783
178 1 -16.037 3.77843 -77.8783
180 1 -12.848 3.77843 -77.8783
182 1 -9.65896 3.77843 -77.8783
184 1 -6.46996 3.77843 -77.8783
186 1 -3.28096 3.77843 -77.8783
188 1 -0.0919633 3.77843 -77.8783
190 1 3.09704 3.77843 -77.8783
192 1 6.28604 3.77843 -77.8783
194 1 9.47504 3.77843 -77.8783
196 1 12.664 3.77843 -77.8783
198 1 15.853 3.77843 -77.8783
200 1 19.042 3.77843 -77.8783
202 1 22.231 3.77843 -77.8783
204 1 25.42 3.77843 -77.8783
206 1 28.609 3.77843 -77.8783
208 1 31.798 3.77843 -77.8783
210 1 34.987 3.77843 -77.8783
212 1 38.176 3.77843 -77.8783
214 1 41.365 3.77843 -77.8783
216 1 44.554 3.77843 -77.8783
218 1 47.743 3.77843 -77.8783
220 1 50.932 3.77843 -77.8783
222 1 54.121 3.77843 -77.8783
224 1 57.31 3.77843 -77.8783
226 1 60.499 3.77843 -77.8783
228 1 63.688 3.77843 -77.8783
230 1 66.877 3.77843 -77.8783
232 1 70.066 3.77843 -77.8783
234 1 73.255 3.77843 -77.8783
236 1 76.444 3.77843 -77.8783
238 1 79.633 3.77843 -77.8783
240 1 82.822 3.77843 -77.8783
242 1 86.011 3.77843 -77.8783
244 1 89.2 3.77843 -77.8783
246 1 92.389 3.77843 -77.8783
248 1 95.578 3.77843 -77.8783
250 1 98.767 3.77843 -77.8783
252 1 101.956 3.77843 -77.8783
254 1 105.145 3.77843 -77.8783
256 1 108.334 3.77843 -77.8783
258 1 111.523 3.77843 -77.8783
260 1 114.712 3.77843 -77.8783
262 1 117.901 3.77843 -77.8783
264 1 121.09 3.77843 -77.8783