ITEM: TIMESTEP
13000
ITEM: NUMBER OF ATOMS
14121
ITEM: BOX BOUNDS ss ss ss
-4.4469073391375680e+01 4.3174509963538037e+02
-1.0231754111503553e+00 3.3781192455658292e+01
-4.4454637090692884e+01 2.8524421813242691e+02
ITEM: ATOMS id type x y z
1 1 -44.5568 0 -44.5568
3 1 -41.3678 0 -44.5568
5 1 -38.1788 0 -44.5568
7 1 -34.9898 0 -44.5568
9 1 -31.8008 0 -44.5568
11 1 -28.6118 0 -44.5568
13 1 -25.4228 0 -44.5568
15 1 -22.2338 0 -44.5568
17 1 -19.0448 0 -44.5568
19 1 -15.8558 0 -44.5568
21 1 -12.6668 0 -44.5568
23 1 -9.47784 0 -44.5568
25 1 -6.28884 0 -44.5568
27 1 -3.09984 0 -44.5568
29 1 0.0891622 0 -44.5568
31 1 3.27816 0 -44.5568
33 1 6.46716 0 -44.5568
35 1 9.65616 0 -44.5568
37 1 12.8452 0 -44.5568
39 1 16.0342 0 -44.5568
41 1 19.2232 0 -44.5568
43 1 22.4122 0 -44.5568
45 1 25.6012 0 -44.5568
47 1 28.7902 0 -44.5568
49 1 31.9792 0 -44.5568
51 1 35.1682 0 -44.5568
53 1 38.3572 0 -44.5568
55 1 41.5462 0 -44.5568
57 1 44.7352 0 -44.5568
59 1 47.9242 0 -44.5568
61 1 51.1132 0 -44.5568
63 1 54.3022 0 -44.5568
65 1 57.4912 0 -44.5568
67 1 60.6802 0 -44.5568
69 1 63.8692 0 -44.5568
71 1 67.0582 0 -44.5568
73 1 70.2472 0 -44.5568
75 1 73.4362 0 -44.5568
77 1 76.6252 0 -44.5568
79 1 79.8142 0 -44.5568
81 1 83.0032 0 -44.5568
83 1 86.1922 0 -44.5568
85 1 89.3812 0 -44.5568
87 1 92.5702 0 -44.5568
89 1 95.7592 0 -44.5568
91 1 98.9482 0 -44.5568
93 1 102.137 0 -44.5568
95 1 105.326 0 -44.5568
97 1 108.515 0 -44.5568
99 1 111.704 0 -44.5568
101 1 114.893 0 -44.5568
103 1 118.082 0 -44.5568
105 1 121.271 0 -44.5568
107 1 124.46 0 -44.5568
109 1 127.649 0 -44.5568
111 1 130.838 0 -44.5568
113 1 134.027 0 -44.5568
115 1 137.216 0 -44.5568
117 1 140.405 0 -44.5568
119 1 143.594 0 -44.5568
121 1 146.783 0 -44.5568
123 1 149.972 0 -44.5568
125 1 153.161 0 -44.5568
127 1 156.35 0 -44.5568
129 1 159.539 0 -44.5568
131 1 162.728 0 -44.5568
133 1 165.917 0 -44.5568
135 1 -42.9623 2.76176 -44.5568
137 1 -39.7733 2.76176 -44.5568
139 1 -36.5843 2.76176 -44.5568
141 1 -33.3953 2.76176 -44.5568
143 1 -30.2063 2.76176 -44.5568
145 1 -27.0173 2.76176 -44.5568
147 1 -23.8283 2.76176 -44.5568
149 1 -20.6393 2.76176 -44.5568
151 1 -17.4503 2.76176 -44.5568
153 1 -14.2613 2.76176 -44.5568
155 1 -11.0723 2.76176 -44.5568
157 1 -7.88334 2.76176 -44.5568
159 1 -4.69434 2.76176 -44.5568
161 1 -1.50534 2.76176 -44.5568
163 1 1.68366 2.76176 -44.5568
165 1 4.87266 2.76176 -44.5568
167 1 8.06166 2.76176 -44.5568
169 1 11.2507 2.76176 -44.5568
171 1 14.4397 2.76176 -44.5568
173 1 17.6287 2.76176 -44.5568
175 1 20.8177 2.76176 -44.5568
177 1 24.0067 2.76176 -44.5568
179 1 27.1957 2.76176 -44.5568
181 1 30.3847 2.76176 -44.5568
183 1 33.5737 2.76176 -44.5568
185 1 36.7627 2.76176 -44.5568
187 1 39.9517 2.76176 -44.5568
189 1 43.1407 2.76176 -44.5568
191 1 46.3297 2.76176 -44.5568
193 1 49.5187 2.76176 -44.5568
195 1 52.7077 2.76176 -44.5568
197 1 55.8967 2.76176 -44.5568
199 1 59.0857 2.76176 -44.5568
201 1 62.2747 2.76176 -44.5568
203 1 65.4637 2.76176 -44.5568
205 1 68.6527 2.76176 -44.5568
207 1 71.8417 2.76176 -44.5568
209 1 75.0307 2.76176 -44.5568
211 1 78.2197 2.76176 -44.5568
213 1 81.4087 2.76176 -44.5568
215 1 84.5977 2.76176 -44.5568
217 1 87.7867 2.76176 -44.5568
219 1 90.9757 2.76176 -44.5568
221 1 94.1647 2.76176 -44.5568
223 1 97.3537 2.76176 -44.5568
225 1 100.543 2.76176 -44.5568
227 1 103.732 2.76176 -44.5568
229 1 106.921 2.76176 -44.5568
231 1 110.11 2.76176 -44.5568
233 1 113.299 2.76176 -44.5568
235 1 116.488 2.76176 -44.5568
237 1 119.677 2.76176 -44.5568
239 1 122.866 2.76176 -44.5568
241 1 126.055 2.76176 -44.5568
243 1 129.244 2.76176 -44.5568
245 1 132.433 2.76176 -44.5568
247 1 135.622 2.76176 -44.5568
249 1 138.811 2.76176 -44.5568
251 1 142 2.76176 -44.5568
253 1 145.189 2.76176 -44.5568
255 1 148.378 2.76176 -44.5568
257 1 151.567 2.76176 -44.5568
259 1 154.756 2.76176 -44.5568
261 1 157.945 2.76176 -44.5568
263 1 161.134 2.76176 -44.5568
265 1 164.323 2.76176 -44.5568
266 1 -44.5568 5.52351 -44.5568
268 1 -41.3678 5.52351 -44.5568
270 1 -38.1788 5.52351 -44.5568
272 1 -34.9898 5.52351 -44.5568
274 1 -31.8008 5.52351 -44.5568
276 1 -28.6118 5.52351 -44.5568
278 1 -25.4228 5.52351 -44.5568
280 1 -22.2338 5.52351 -44.5568
282 1 -19.0448 5.52351 -44.5568
284 1 -15.8558 5.52351 -44.5568
286 1 -12.6668 5.52351 -44.5568
288 1 -9.47784 5.52351 -44.5568
290 1 -6.28884 5.52351 -44.5568
292 1 -3.09984 5.52351 -44.5568
294 1 0.0891622 5.52351 -44.5568
296 1 3.27816 5.52351 -44.5568
298 1 6.46716 5.52351 -44.5568
300 1 9.65616 5.52351 -44.5568
302 1 12.8452 5.52351 -44.5568
304 1 16.0342 5.52351 -44.5568
306 1 19.2232 5.52351 -44.5568
308 1 22.4122 5.52351 -44.5568
310 1 25.6012 5.52351 -44.5568
312 1 28.7902 5.52351 -44.5568
314 1 31.9792 5.52351 -44.5568
316 1 35.1682 5.52351 -44.5568
318 1 38.3572 5.52351 -44.5568
320 1 41.5462 5.52351 -44.5568
322 1 44.7352 5.52351 -44.5568
324 1 47.9242 5.52351 -44.5568
326 1 51.1132 5.52351 -44.5568
328 1 54.3022 5.52351 -44.5568
330 1 57.4912 5.52351 -44.5568
332 1 60.6802 5.52351 -44.5568
334 1 63.8692 5.52351 -44.5568
336 1 67.0582 5.52351 -44.5568
338 1 70.2472 5.52351 -44.5568
340 1 73.4362 5.52351 -44.5568
342 1 76.6252 5.52351 -44.5568
344 1 79.8142 5.52351 -44.5568
346 1 83.0032 5.52351 -44.5568
348 1 86.1922 5.52351 -44.5568
350 1 89.3812 5.52351 -44.5568
352 1 92.5702 5.52351 -44.5568
354 1 95.7592 5.52351 -44.5568
356 1 98.9482 5.52351 -44.5568
358 1 102.137 5.52351 -44.5568
360 1 105.326 5.52351 -44.5568
362 1 108.515 5.52351 -44.5568
364 1 111.704 5.52351 -44.5568
366 1 114.893 5.52351 -44.5568
368 1 118.082 5.52351 -44.5568
370 1 121.271 5.52351 -44.5568
372 1 124.46 5.52351 -44.5568
374 1 127.649 5.52351 -44.5568
376 1 130.838 5.52351 -44.5568
378 1 134.027 5.52351 -44.5568
380 1 137.216 5.52351 -44.5568
382 1 140.405 5.52351 -44.5568
384 1 143.594 5.52351 -44.5568
386 1 146.783 5.52351 -44.5568
388 1 149.972 5.52351 -44.5568
390 1 153.161 5.52351 -44.5568
392 1 156.35 5.52351 -44.5568
394 1 159.539 5.52351 -44.5568
396 1 162.728 5.52351 -44.5568
398 1 165.917 5.52351 -44.5568
400 1 -42.9623 8.28527 -44.5568
402 1 -39.7733 8.28527 -44.5568
404 1 -36.5843 8.28527 -44.5568
406 1 -33.3953 8.28527 -44.5568
408 1 -30.2063 8.28527 -44.5568
410 1 -27.0173 8.28527 -44.5568
412 1 -23.8283 8.28527 -44.5568
414 1 -20.6393 8.28527 -44.5568
416 1 -17.4503 8.28527 -44.5568
418 1 -14.2613 8.28527 -44.5568
420 1 -11.0723 8.28527 -44.5568
422 1 -7.88334 8.28527 -44.5568
424 1 -4.69434 8.28527 -44.5568
426 1 -1.50534 8.28527 -44.5568
428 1 1.68366 8.28527 -44.5568
430 1 4.87266 8.28527 -44.5568
432 1 8.06166 8.28527 -44.5568
434 1 11.2507 8.28527 -44.5568
436 1 14.4397 8.28527 -44.5568
438 1 17.6287 8.28527 -44.5568
440 1 20.8177 8.28527 -44.5568
442 1 24.0067 8.28527 -44.5568
444 1 27.1957 8.28527 -44.5568
446 1 30.3847 8.28527 -44.5568
448 1 33.5737 8.28527 -44.5568
450 1 36.7627 8.28527 -44.5568
452 1 39.9517 8.28527 -44.5568
454 1 43.1407 8.28527 -44.5568
456 1 46.3297 8.28527 -44.5568
458 1 49.5187 8.28527 -44.5568
460 1 52.7077 8.28527 -44.5568
462 1 55.8967 8.28527 -44.5568
464 1 59.0857 8.28527 -44.5568
466 1 62.2747 8.28527 -44.5568
468 1 65.4637 8.28527 -44.5568
470 1 68.6527 8.28527 -44.5568
472 1 71.8417 8.28527 -44.5568
474 1 75.0307 8.28527 -44.5568
476 1 78.2197 8.28527 -44.5568
478 1 81.4087 8.28527 -44.5568
480 1 84.5977 8.28527 -44.5568
482 1 87.7867 8.28527 -44.5568
484 1 90.9757 8.28527 -44.5568
486 1 94.1647 8.28527 -44.5568
488 1 97.3537 8.28527 -44.5568
490 1 100.543 8.28527 -44.5568
492 1 103.732 8.28527 -44.5568
494 1 106.921 8.28527 -44.5568
496 1 110.11 8.28527 -44.5568
498 1 113.299 8.28527 -44.5568
500 1 116.488 8.28527 -44.5568
502 1 119.677 8.28527 -44.5568
504 1 122.866 8.28527 -44.5568
506 1 126.055 8.28527 -44.5568
508 1 129.244 8.28527 -44.5568
510 1 132.433 8.28527 -44.5568
512 1 135.622 8.28527 -44.5568
514 1 138.811 8.28527 -44.5568
516 1 142 8.28527 -44.5568
518 1 145.189 8.28527 -44.5568
520 1 148.378 8.28527 -44.5568
522 1 151.567 8.28527 -44.5568
524 1 154.756 8.28527 -44.5568
526 1 157.945 8.28527 -44.5568
528 1 161.134 8.28527 -44.5568
530 1 164.323 8.28527 -44.5568
531 1 -44.5568 11.047 -44.5568
533 1 -41.3678 11.047 -44.5568
535 1 -38.1788 11.047 -44.5568
537 1 -34.9898 11.047 -44.5568
539 1 -31.8008 11.047 -44.5568
541 1 -28.6118 11.047 -44.5568
543 1 -25.4228 11.047 -44.5568
545 1 -22.2338 11.047 -44.5568
547 1 -19.0448 11.047 -44.5568
549 1 -15.8558 11.047 -44.5568
551 1 -12.6668 11.047 -44.5568
553 1 -9.47784 11.047 -44.5568
555 1 -6.28884 11.047 -44.5568
557 1 -3.09984 11.047 -44.5568
559 1 0.0891622 11.047 -44.5568
561 1 3.27816 11.047 -44.5568
563 1 6.46716 11.047 -44.5568
565 1 9.65616 11.047 -44.5568
567 1 12.8452 11.047 -44.5568
569 1 16.0342 11.047 -44.5568
571 1 19.2232 11.047 -44.5568
573 1 22.4122 11.047 -44.5568
575 1 25.6012 11.047 -44.5568
577 1 28.7902 11.047 -44.5568
579 1 31.9792 11.047 -44.5568
581 1 35.1682 11.047 -44.5568
583 1 38.3572 11.047 -44.5568
585 1 41.5462 11.047 -44.5568
587 1 44.7352 11.047 -44.5568
589 1 47.9242 11.047 -44.5568
591 1 51.1132 11.047 -44.5568
593 1 54.3022 11.047 -44.5568
595 1 57.4912 11.047 -44.5568
597 1 60.6802 11.047 -44.5568
599 1 63.8692 11.047 -44.5568
601 1 67.0582 11.047 -44.5568
603 1 70.2472 11.047 -44.5568
605 1 73.4362 11.047 -44.5568
607 1 76.6252 11.047 -44.5568
609 1 79.8142 11.047 -44.5568
611 1 83.0032 11.047 -44.5568
613 1 86.1922 11.047 -44.5568
615 1 89.3812 11.047 -44.5568
617 1 92.5702 11.047 -44.5568
619 1 95.7592 11.047 -44.5568
621 1 98.9482 11.047 -44.5568
623 1 102.137 11.047 -44.5568
625 1 105.326 11.047 -44.5568
627 1 108.515 11.047 -44.5568
629 1 111.704 11.047 -44.5568
631 1 114.893 11.047 -44.5568
633 1 118.082 11.047 -44.5568
635 1 121.271 11.047 -44.5568
637 1 124.46 11.047 -44.5568
639 1 127.649 11.047 -44.5568
641 1 130.838 11.047 -44.5568
643 1 134.027 11.047 -44.5568
645 1 137.216 11.047 -44.5568
647 1 140.405 11.047 -44.5568
649 1 143.594 11.047 -44.5568
651 1 146.783 11.047 -44.5568
653 1 149.972 11.047 -44.5568
655 1 153.161 11.047 -44.5568
657 1 156.35 11.047 -44.5568
659 1 159.539 11.047 -44.5568
661 1 162.728 11.047 -44.5568
663 1 165.917 11.047 -44.5568
665 1 -42.9623 13.8088 -44.5568
667 1 -39.7733 13.8088 -44.5568
669 1 -36.5843 13.8088 -44.5568
671 1 -33.3953 13.8088 -44.5568
673 1 -30.2063 13.8088 -44.5568
675 1 -27.0173 13.8088 -44.5568
677 1 -23.8283 13.8088 -44.5568
679 1 -20.6393 13.8088 -44.5568
681 1 -17.4503 13.8088 -44.5568
683 1 -14.2613 13.8088 -44.5568
685 1 -11.0723 13.8088 -44.5568
687 1 -7.88334 13.8088 -44.5568
689 1 -4.69434 13.8088 -44.5568
691 1 -1.50534 13.8088 -44.5568
693 1 1.68366 13.8088 -44.5568
695 1 4.87266 13.8088 -44.5568
697 1 8.06166 13.8088 -44.5568
699 1 11.2507 13.8088 -44.5568
701 1 14.4397 13.8088 -44.5568
703 1 17.6287 13.8088 -44.5568
705 1 20.8177 13.8088 -44.5568
707 1 24.0067 13.8088 -44.5568
709 1 27.1957 13.8088 -44.5568
711 1 30.3847 13.8088 -44.5568
713 1 33.5737 13.8088 -44.5568
715 1 36.7627 13.8088 -44.5568
717 1 39.9517 13.8088 -44.5568
719 1 43.1407 13.8088 -44.5568
721 1 46.3297 13.8088 -44.5568
723 1 49.5187 13.8088 -44.5568
725 1 52.7077 13.8088 -44.5568
727 1 55.8967 13.8088 -44.5568
729 1 59.0857 13.8088 -44.5568
731 1 62.2747 13.8088 -44.5568
733 1 65.4637 13.8088 -44.5568
735 1 68.6527 13.8088 -44.5568
737 1 71.8417 13.8088 -44.5568
739 1 75.0307 13.8088 -44.5568
741 1 78.2197 13.8088 -44.5568
743 1 81.4087 13.8088 -44.5568
745 1 84.5977 13.8088 -44.5568
747 1 87.7867 13.8088 -44.5568
749 1 90.9757 13.8088 -44.5568
751 1 94.1647 13.8088 -44.5568
753 1 97.3537 13.8088 -44.5568
755 1 100.543 13.8088 -44.5568
757 1 103.732 13.8088 -44.5568
759 1 106.921 13.8088 -44.5568
761 1 110.11 13.8088 -44.5568
763 1 113.299 13.8088 -44.5568
765 1 116.488 13.8088 -44.5568
767 1 119.677 13.8088 -44.5568
769 1 122.866 13.8088 -44.5568
771 1 126.055 13.8088 -44.5568
773 1 129.244 13.8088 -44.5568
775 1 132.433 13.8088 -44.5568
777 1 135.622 13.8088 -44.5568
779 1 138.811 13.8088 -44.5568
781 1 142 13.8088 -44.5568
783 1 145.189 13.8088 -44.5568
785 1 148.378 13.8088 -44.5568
787 1 151.567 13.8088 -44.5568
789 1 154.756 13.8088 -44.5568
791 1 157.945 13.8088 -44.5568
793 1 161.134 13.8088 -44.5568
795 1 164.323 13.8088 -44.5568
796 1 -44.5568 16.5705 -44.5568
798 1 -41.3678 16.5705 -44.5568
800 1 -38.1788 16.5705 -44.5568
802 1 -34.9898 16.5705 -44.5568
804 1 -31.8008 16.5705 -44.5568
806 1 -28.6118 16.5705 -44.5568
808 1 -25.4228 16.5705 -44.5568
810 1 -22.2338 16.5705 -44.5568
812 1 -19.0448 16.5705 -44.5568
814 1 -15.8558 16.5705 -44.5568
816 1 -12.6668 16.5705 -44.5568
818 1 -9.47784 16.5705 -44.5568
820 1 -6.28884 16.5705 -44.5568
822 1 -3.09984 16.5705 -44.5568
824 1 0.0891622 16.5705 -44.5568
826 1 3.27816 16.5705 -44.5568
828 1 6.46716 16.5705 -44.5568
830 1 9.65616 16.5705 -44.5568
832 1 12.8452 16.5705 -44.5568
834 1 16.0342 16.5705 -44.5568
836 1 19.2232 16.5705 -44.5568
838 1 22.4122 16.5705 -44.5568
840 1 25.6012 16.5705 -44.5568
842 1 28.7902 16.5705 -44.5568
844 1 31.9792 16.5705 -44.5568
846 1 35.1682 16.5705 -44.5568
848 1 38.3572 16.5705 -44.5568
850 1 41.5462 16.5705 -44.5568
852 1 44.7352 16.5705 -44.5568
854 1 47.9242 16.5705 -44.5568
856 1 51.1132 16.5705 -44.5568
858 1 54.3022 16.5705 -44.5568
860 1 57.4912 16.5705 -44.5568
862 1 60.6802 16.5705 -44.5568
864 1 63.8692 16.5705 -44.5568
866 1 67.0582 16.5705 -44.5568
868 1 70.2472 16.5705 -44.5568
870 1 73.4362 16.5705 -44.5568
872 1 76.6252 16.5705 -44.5568
874 1 79.8142 16.5705 -44.5568
876 1 83.0032 16.5705 -44.5568
878 1 86.1922 16.5705 -44.5568
880 1 89.3812 16.5705 -44.5568
882 1 92.5702 16.5705 -44.5568
884 1 95.7592 16.5705 -44.5568
886 1 98.9482 16.5705 -44.5568
888 1 102.137 16.5705 -44.5568
890 1 105.326 16.5705 -44.5568
892 1 108.515 16.5705 -44.5568
894 1 111.704 16.5705 -44.5568
896 1 114.893 16.5705 -44.5568
898 1 118.082 16.5705 -44.5568
900 1 121.271 16.5705 -44.5568
902 1 124.46 16.5705 -44.5568
904 1 127.649 16.5705 -44.5568
906 1 130.838 16.5705 -44.5568
908 1 134.027 16.5705 -44.5568
910 1 137.216 16.5705 -44.5568
912 1 140.405 16.5705 -44.5568
914 1 143.594 16.5705 -44.5568
916 1 146.783 16.5705 -44.5568
918 1 149.972 16.5705 -44.5568
920 1 153.161 16.5705 -44.5568
922 1 156.35 16.5705 -44.5568
924 1 159.539 16.5705 -44.5568
926 1 162.728 16.5705 -44.5568
928 1 165.917 16.5705 -44.5568
930 1 -42.9623 19.3323 -44.5568
932 1 -39.7733 19.3323 -44.5568
934 1 -36.5843 19.3323 -44.5568
936 1 -33.3953 19.3323 -44.5568
938 1 -30.2063 19.3323 -44.5568
940 1 -27.0173 19.3323 -44.5568
942 1 -23.8283 19.3323 -44.5568
944 1 -20.6393 19.3323 -44.5568
946 1 -17.4503 19.3323 -44.5568
948 1 -14.2613 19.3323 -44.5568
950 1 -11.0723 19.3323 -44.5568
952 1 -7.88334 19.3323 -44.5568
954 1 -4.69434 19.3323 -44.5568
956 1 -1.50534 19.3323 -44.5568
958 1 1.68366 19.3323 -44.5568
960 1 4.87266 19.3323 -44.5568
962 1 8.06166 19.3323 -44.5568
964 1 11.2507 19.3323 -44.5568
966 1 14.4397 19.3323 -44.5568
968 1 17.6287 19.3323 -44.5568
970 1 20.8177 19.3323 -44.5568
972 1 24.0067 19.3323 -44.5568
974 1 27.1957 19.3323 -44.5568
976 1 30.3847 19.3323 -44.5568
978 1 33.5737 19.3323 -44.5568
980 1 36.7627 19.3323 -44.5568
982 1 39.9517 19.3323 -44.5568
984 1 43.1407 19.3323 -44.5568
986 1 46.3297 19.3323 -44.5568
988 1 49.5187 19.3323 -44.5568
990 1 52.7077 19.3323 -44.5568
992 1 55.8967 19.3323 -44.5568
994 1 59.0857 19.3323 -44.5568
996 1 62.2747 19.3323 -44.5568
998 1 65.4637 19.3323 -44.5568
1000 1 68.6527 19.3323 -44.5568
1002 1 71.8417 19.3323 -44.5568
1004 1 75.0307 19.3323 -44.5568
1006 1 78.2197 19.3323 -44.5568
1008 1 81.4087 19.3323 -44.5568
1010 1 84.5977 19.3323 -44.5568
1012 1 87.7867 19.3323 -44.5568
1014 1 90.9757 19.3323 -44.5568
1016 1 94.1647 19.3323 -44.5568
1018 1 97.3537 19.3323 -44.5568
1020 1 100.543 19.3323 -44.5568
1022 1 103.732 19.3323 -44.5568
1024 1 106.921 19.3323 -44.5568
1026 1 110.11 19.3323 -44.5568
1028 1 113.299 19.3323 -44.5568
1030 1 116.488 19.3323 -44.5568
1032 1 119.677 19.3323 -44.5568
1034 1 122.866 19.3323 -44.5568
1036 1 126.055 19.3323 -44.5568
1038 1 129.244 19.3323 -44.5568
1040 1 132.433 19.3323 -44.5568
1042 1 135.622 19.3323 -44.5568
1044 1 138.811 19.3323 -44.5568
1046 1 142 19.3323 -44.5568
1048 1 145.189 19.3323 -44.5568
1050 1 148.378 19.3323 -44.5568
1052 1 151.567 19.3323 -44.5568
1054 1 154.756 19.3323 -44.5568
1056 1 157.945 19.3323 -44.5568
1058 1 161.134 19.3323 -44.5568
1060 1 164.323 19.3323 -44.5568
1061 1 -44.5568 22.094 -44.5568
1063 1 -41.3678 22.094 -44.5568
1065 1 -38.1788 22.094 -44.5568
1067 1 -34.9898 22.094 -44.5568
1069 1 -31.8008 22.094 -44.5568
1071 1 -28.6118 22.094 -44.5568
1073 1 -25.4228 22.094 -44.5568
1075 1 -22.2338 22.094 -44.5568
1077 1 -19.0448 22.094 -44.5568
1079 1 -15.8558 22.094 -44.5568
1081 1 -12.6668 22.094 -44.5568
1083 1 -9.47784 22.094 -44.5568
1085 1 -6.28884 22.094 -44.5568
1087 1 -3.09984 22.094 -44.5568
1089 1 0.0891622 22.094 -44.5568
1091 1 3.27816 22.094 -44.5568
1093 1 6.46716 22.094 -44.5568
1095 1 9.65616 22.094 -44.5568
1097 1 12.8452 22.094 -44.5568
1099 1 16.0342 22.094 -44.5568
1101 1 19.2232 22.094 -44.5568
1103 1 22.4122 22.094 -44.5568
1105 1 25.6012 22.094 -44.5568
1107 1 28.7902 22.094 -44.5568
1109 1 31.9792 22.094 -44.5568
1111 1 35.1682 22.094 -44.5568
1113 1 38.3572 22.094 -44.5568
1115 1 41.5462 22.094 -44.5568
1117 1 44.7352 22.094 -44.5568
1119 1 47.9242 22.094 -44.5568
1121 1 51.1132 22.094 -44.5568
1123 1 54.3022 22.094 -44.5568
1125 1 57.4912 22.094 -44.5568
1127 1 60.6802 22.094 -44.5568
1129 1 63.8692 22.094 -44.5568
1131 1 67.0582 22.094 -44.5568
1133 1 70.2472 22.094 -44.5568
1135 1 73.4362 22.094 -44.5568
1137 1 76.6252 22.094 -44.5568
1139 1 79.8142 22.094 -44.5568
1141 1 83.0032 22.094 -44.5568
1143 1 86.1922 22.094 -44.5568
1145 1 89.3812 22.094 -44.5568
1147 1 92.5702 22.094 -44.5568
1149 1 95.7592 22.094 -44.5568
1151 1 98.9482 22.094 -44.5568
1153 1 102.137 22.094 -44.5568
1155 1 105.326 22.094 -44.5568
1157 1 108.515 22.094 -44.5568
1159 1 111.704 22.094 -44.5568
1161 1 114.893 22.094 -44.5568
1163 1 118.082 22.094 -44.5568
1165 1 121.271 22.094 -44.5568
1167 1 124.46 22.094 -44.5568
1169 1 127.649 22.094 -44.5568
1171 1 130.838 22.094 -44.5568
1173 1 134.027 22.094 -44.5568
1175 1 137.216 22.094 -44.5568
1177 1 140.405 22.094 -44.5568
1179 1 143.594 22.094 -44.5568
1181 1 146.783 22.094 -44.5568
1183 1 149.972 22.094 -44.5568
1185 1 153.161 22.094 -44.5568
1187 1 156.35 22.094 -44.5568
1189 1 159.539 22.094 -44.5568
1191 1 162.728 22.094 -44.5568
1193 1 165.917 22.094 -44.5568
1195 1 -42.9623 24.8558 -44.5568
1197 1 -39.7733 24.8558 -44.5568
1199 1 -36.5843 24.8558 -44.5568
1201 1 -33.3953 24.8558 -44.5568
1203 1 -30.2063 24.8558 -44.5568
1205 1 -27.0173 24.8558 -44.5568
1207 1 -23.8283 24.8558 -44.5568
1209 1 -20.6393 24.8558 -44.5568
1211 1 -17.4503 24.8558 -44.5568
1213 1 -14.2613 24.8558 -44.5568
1215 1 -11.0723 24.8558 -44.5568
1217 1 -7.88334 24.8558 -44.5568
1219 1 -4.69434 24.8558 -44.5568
1221 1 -1.50534 24.8558 -44.5568
1223 1 1.68366 24.8558 -44.5568
1225 1 4.87266 24.8558 -44.5568
1227 1 8.06166 24.8558 -44.5568
1229 1 11.2507 24.8558 -44.5568
1231 1 14.4397 24.8558 -44.5568
1233 1 17.6287 24.8558 -44.5568
1235 1 20.8177 24.8558 -44.5568
1237 1 24.0067 24.8558 -44.5568
1239 1 27.1957 24.8558 -44.5568
1241 1 30.3847 24.8558 -44.5568
1243 1 33.5737 24.8558 -44.5568
1245 1 36.7627 24.8558 -44.5568
1247 1 39.9517 24.8558 -44.5568
1249 1 43.1407 24.8558 -44.5568
1251 1 46.3297 24.8558 -44.5568
1253 1 49.5187 24.8558 -44.5568
1255 1 52.7077 24.8558 -44.5568
1257 1 55.8967 24.8558 -44.5568
1259 1 59.0857 24.8558 -44.5568
1261 1 62.2747 24.8558 -44.5568
1263 1 65.4637 24.8558 -44.5568
1265 1 68.6527 24.8558 -44.5568
1267 1 71.8417 24.8558 -44.5568
1269 1 75.0307 24.8558 -44.5568
1271 1 78.2197 24.8558 -44.5568
1273 1 81.4087 24.8558 -44.5568
1275 1 84.5977 24.8558 -44.5568
1277 1 87.7867 24.8558 -44.5568
1279 1 90.9757 24.8558 -44.5568
1281 1 94.1647 24.8558 -44.5568
1283 1 97.3537 24.8558 -44.5568
1285 1 100.543 24.8558 -44.5568
1287 1 103.732 24.8558 -44.5568
1289 1 106.921 24.8558 -44.5568
1291 1 110.11 24.8558 -44.5568
1293 1 113.299 24.8558 -44.5568
1295 1 116.488 24.8558 -44.5568
1297 1 119.677 24.8558 -44.5568
1299 1 122.866 24.8558 -44.5568
1301 1 126.055 24.8558 -44.5568
1303 1 129.244 24.8558 -44.5568
1305 1 132.433 24.8558 -44.5568
1307 1 135.622 24.8558 -44.5568
1309 1 138.811 24.8558 -44.5568
1311 1 142 24.8558 -44.5568
1313 1 145.189 24.8558 -44.5568
1315 1 148.378 24.8558 -44.5568
1317 1 151.567 24.8558 -44.5568
1319 1 154.756 24.8558 -44.5568
1321 1 157.945 24.8558 -44.5568
1323 1 161.134 24.8558 -44.5568
1325 1 164.323 24.8558 -44.5568
1326 1 -44.5568 27.6176 -44.5568
1328 1 -41.3678 27.6176 -44.5568
1330 1 -38.1788 27.6176 -44.5568
1332 1 -34.9898 27.6176 -44.5568
1334 1 -31.8008 27.6176 -44.5568
1336 1 -28.6118 27.6176 -44.5568
1338 1 -25.4228 27.6176 -44.5568
1340 1 -22.2338 27.6176 -44.5568
1342 1 -19.0448 27.6176 -44.5568
1344 1 -15.8558 27.6176 -44.5568
1346 1 -12.6668 27.6176 -44.5568
1348 1 -9.47784 27.6176 -44.5568
1350 1 -6.28884 27.6176 -44.5568
1352 1 -3.09984 27.6176 -44.5568
1354 1 0.0891622 27.6176 -44.5568
1356 1 3.27816 27.6176 -44.5568
1358 1 6.46716 27.6176 -44.5568
1360 1 9.65616 27.6176 -44.5568
1362 1 12.8452 27.6176 -44.5568
1364 1 16.0342 27.6176 -44.5568
1366 1 19.2232 27.6176 -44.5568
1368 1 22.4122 27.6176 -44.5568
1370 1 25.6012 27.6176 -44.5568
1372 1 28.7902 27.6176 -44.5568
1374 1 31.9792 27.6176 -44.5568
1376 1 35.1682 27.6176 -44.5568
1378 1 38.3572 27.6176 -44.5568
1380 1 41.5462 27.6176 -44.5568
1382 1 44.7352 27.6176 -44.5568
1384 1 47.9242 27.6176 -44.5568
1386 1 51.1132 27.6176 -44.5568
1388 1 54.3022 27.6176 -44.5568
1390 1 57.4912 27.6176 -44.5568
1392 1 60.6802 27.6176 -44.5568
1394 1 63.8692 27.6176 -44.5568
1396 1 67.0582 27.6176 -44.5568
1398 1 70.2472 27.6176 -44.5568
1400 1 73.4362 27.6176 -44.5568
1402 1 76.6252 27.6176 -44.5568
1404 1 79.8142 27.6176 -44.5568
1406 1 83.0032 27.6176 -44.5568
1408 1 86.1922 27.6176 -44.5568
1410 1 89.3812 27.6176 -44.5568
1412 1 92.5702 27.6176 -44.5568
1414 1 95.7592 27.6176 -44.5568
1416 1 98.9482 27.6176 -44.5568
1418 1 102.137 27.6176 -44.5568
1420 1 105.326 27.6176 -44.5568
1422 1 108.515 27.6176 -44.5568
1424 1 111.704 27.6176 -44.5568
1426 1 114.893 27.6176 -44.5568
1428 1 118.082 27.6176 -44.5568
1430 1 121.271 27.6176 -44.5568
1432 1 124.46 27.6176 -44.5568
1434 1 127.649 27.6176 -44.5568
1436 1 130.838 27.6176 -44.5568
1438 1 134.027 27.6176 -44.5568
1440 1 137.216 27.6176 -44.5568
1442 1 140.405 27.6176 -44.5568
1444 1 143.594 27.6176 -44.5568
1446 1 146.783 27.6176 -44.5568
1448 1 149.972 27.6176 -44.5568
1450 1 153.161 27.6176 -44.5568
1452 1 156.35 27.6176 -44.5568
1454 1 159.539 27.6176 -44.5568
1456 1 162.728 27.6176 -44.5568
1458 1 165.917 27.6176 -44.5568
1460 1 -42.9623 30.3793 -44.5568
1462 1 -39.7733 30.3793 -44.5568
1464 1 -36.5843 30.3793 -44.5568
1466 1 -33.3953 30.3793 -44.5568
1468 1 -30.2063 30.3793 -44.5568
1470 1 -27.0173 30.3793 -44.5568
1472 1 -23.8283 30.3793 -44.5568
1474 1 -20.6393 30.3793 -44.5568
1476 1 -17.4503 30.3793 -44.5568
1478 1 -14.2613 30.3793 -44.5568
1480 1 -11.0723 30.3793 -44.5568
1482 1 -7.88334 30.3793 -44.5568
1484 1 -4.69434 30.3793 -44.5568
1486 1 -1.50534 30.3793 -44.5568
1488 1 1.68366 30.3793 -44.5568
1490 1 4.87266 30.3793 -44.5568
1492 1 8.06166 30.3793 -44.5568
1494 1 11.2507 30.3793 -44.5568
1496 1 14.4397 30.3793 -44.5568
1498 1 17.6287 30.3793 -44.5568
1500 1 20.8177 30.3793 -44.5568
1502 1 24.0067 30.3793 -44.5568
1504 1 27.1957 30.3793 -44.5568
1506 1 30.3847 30.3793 -44.5568
1508 1 33.5737 30.3793 -44.5568
1510 1 36.7627 30.3793 -44.5568
1512 1 39.9517 30.3793 -44.5568
1514 1 43.1407 30.3793 -44.5568
1516 1 46.3297 30.3793 -44.5568
1518 1 49.5187 30.3793 -44.5568
1520 1 52.7077 30.3793 -44.5568
1522 1 55.8967 30.3793 -44.5568
1524 1 59.0857 30.3793 -44.5568
1526 1 62.2747 30.3793 -44.5568
1528 1 65.4637 30.3793 -44.5568
1530 1 68.6527 30.3793 -44.5568
1532 1 71.8417 30.3793 -44.5568
1534 1 75.0307 30.3793 -44.5568
1536 1 78.2197 30.3793 -44.5568
1538 1 81.4087 30.3793 -44.5568
1540 1 84.5977 30.3793 -44.5568
1542 1 87.7867 30.3793 -44.5568
1544 1 90.9757 30.3793 -44.5568
1546 1 94.1647 30.3793 -44.5568
1548 1 97.3537 30.3793 -44.5568
1550 1 100.543 30.3793 -44.5568
1552 1 103.732 30.3793 -44.5568
1554 1 106.921 30.3793 -44.5568
1556 1 110.11 30.3793 -44.5568
1558 1 113.299 30.3793 -44.5568
1560 1 116.488 30.3793 -44.5568
1562 1 119.677 30.3793 -44.5568
1564 1 122.866 30.3793 -44.5568
1566 1 126.055 30.3793 -44.5568
1568 1 129.244 30.3793 -44.5568
1570 1 132.433 30.3793 -44.5568
1572 1 135.622 30.3793 -44.5568
1574 1 138.811 30.3793 -44.5568
1576 1 142 30.3793 -44.5568
1578 1 145.189 30.3793 -44.5568
1580 1 148.378 30.3793 -44.5568
1582 1 151.567 30.3793 -44.5568
1584 1 154.756 30.3793 -44.5568
1586 1 157.945 30.3793 -44.5568
1588 1 161.134 30.3793 -44.5568
1590 1 164.323 30.3793 -44.5568
1591 1 -44.5568 33.1411 -44.5568
1592 1 -41.3678 33.1411 -44.5568
1593 1 -38.1788 33.1411 -44.5568
1594 1 -34.9898 33.1411 -44.5568
1595 1 -31.8008 33.1411 -44.5568
1596 1 -28.6118 33.1411 -44.5568
1597 1 -25.4228 33.1411 -44.5568
1598 1 -22.2338 33.1411 -44.5568
1599 1 -19.0448 33.1411 -44.5568
1600 1 -15.8558 33.1411 -44.5568
1601 1 -12.6668 33.1411 -44.5568
1602 1 -9.47784 33.1411 -44.5568
1603 1 -6.28884 33.1411 -44.5568
1604 1 -3.09984 33.1411 -44.5568
1605 1 0.0891622 33.1411 -44.5568
1606 1 3.27816 33.1411 -44.5568
1607 1 6.46716 33.1411 -44.5568
1608 1 9.65616 33.1411 -44.5568
1609 1 12.8452 33.1411 -44.5568
1610 1 16.0342 33.1411 -44.5568
1611 1 19.2232 33.1411 -44.5568
1612 1 22.4122 33.1411 -44.5568
1613 1 25.6012 33.1411 -44.5568
1614 1 28.7902 33.1411 -44.5568
1615 1 31.9792 33.1411 -44.5568
1616 1 35.1682 33.1411 -44.5568
1617 1 38.3572 33.1411 -44.5568
1618 1 41.5462 33.1411 -44.5568
1619 1 44.7352 33.1411 -44.5568
1620 1 47.9242 33.1411 -44.5568
1621 1 51.1132 33.1411 -44.5568
1622 1 54.3022 33.1411 -44.5568
1623 1 57.4912 33.1411 -44.5568
1624 1 60.6802 33.1411 -44.5568
1625 1 63.8692 33.1411 -44.5568
1626 1 67.0582 33.1411 -44.5568
1627 1 70.2472 33.1411 -44.5568
1628 1 73.4362 33.1411 -44.5568
1629 1 76.6252 33.1411 -44.5568
1630 1 79.8142 33.1411 -44.5568
1631 1 83.0032 33.1411 -44.5568
1632 1 86.1922 33.1411 -44.5568
1633 1 89.3812 33.1411 -44.5568
1634 1 92.5702 33.1411 -44.5568
1635 1 95.7592 33.1411 -44.5568
1636 1 98.9482 33.1411 -44.5568
1637 1 102.137 33.1411 -44.5568
1638 1 105.326 33.1411 -44.5568
1639 1 108.515 33.1411 -44.5568
1640 1 111.704 33.1411 -44.5568
1641 1 114.893 33.1411 -44.5568
1642 1 118.082 33.1411 -44.5568
1643 1 121.271 33.1411 -44.5568
1644 1 124.46 33.1411 -44.5568
1645 1 127.649 33.1411 -44.5568
1646 1 130.838 33.1411 -44.5568
1647 1 134.027 33.1411 -44.5568
1648 1 137.216 33.1411 -44.5568
1649 1 140.405 33.1411 -44.5568
1650 1 143.594 33.1411 -44.5568
1651 1 146.783 33.1411 -44.5568
1652 1 149.972 33.1411 -44.5568
1653 1 153.161 33.1411 -44.5568
1654 1 156.35 33.1411 -44.5568
1655 1 159.539 33.1411 -44.5568
1656 1 162.728 33.1411 -44.5568
1657 1 165.917 33.1411 -44.5568
2 1 -42.9943 1.01668 -36.2722
4 1 -39.8053 1.01668 -36.2722
6 1 -36.6163 1.01668 -36.2722
8 1 -33.4273 1.01668 -36.2722
10 1 -30.2383 1.01668 -36.2722
12 1 -27.0493 1.01668 -36.2722
14 1 -23.8603 1.01668 -36.2722
16 1 -20.6713 1.01668 -36.2722
18 1 -17.4823 1.01668 -36.2722
20 1 -14.2933 1.01668 -36.2722
22 1 -11.1043 1.01668 -36.2722
24 1 -7.91533 1.01668 -36.2722
26 1 -4.72633 1.01668 -36.2722
28 1 -1.53733 1.01668 -36.2722
30 1 1.65167 1.01668 -36.2722
32 1 4.84067 1.01668 -36.2722
34 1 8.02967 1.01668 -36.2722
36 1 11.2187 1.01668 -36.2722
38 1 14.4077 1.01668 -36.2722
40 1 17.5967 1.01668 -36.2722
42 1 20.7857 1.01668 -36.2722
44 1 23.9747 1.01668 -36.2722
46 1 27.1637 1.01668 -36.2722
48 1 30.3527 1.01668 -36.2722
50 1 33.5417 1.01668 -36.2722
52 1 36.7307 1.01668 -36.2722
54 1 39.9197 1.01668 -36.2722
56 1 43.1087 1.01668 -36.2722
58 1 46.2977 1.01668 -36.2722
60 1 49.4867 1.01668 -36.2722
62 1 52.6757 1.01668 -36.2722
64 1 55.8647 1.01668 -36.2722
66 1 59.0537 1.01668 -36.2722
68 1 62.2427 1.01668 -36.2722
70 1 65.4317 1.01668 -36.2722
72 1 68.6207 1.01668 -36.2722
74 1 71.8097 1.01668 -36.2722
76 1 74.9987 1.01668 -36.2722
78 1 78.1877 1.01668 -36.2722
80 1 81.3767 1.01668 -36.2722
82 1 84.5657 1.01668 -36.2722
84 1 87.7547 1.01668 -36.2722
86 1 90.9437 1.01668 -36.2722
88 1 94.1327 1.01668 -36.2722
90 1 97.3217 1.01668 -36.2722
92 1 100.511 1.01668 -36.2722
94 1 103.7 1.01668 -36.2722
96 1 106.889 1.01668 -36.2722
98 1 110.078 1.01668 -36.2722
100 1 113.267 1.01668 -36.2722
102 1 116.456 1.01668 -36.2722
104 1 119.645 1.01668 -36.2722
106 1 122.834 1.01668 -36.2722
108 1 126.023 1.01668 -36.2722
110 1 129.212 1.01668 -36.2722
112 1 132.401 1.01668 -36.2722
114 1 135.59 1.01668 -36.2722
116 1 138.779 1.01668 -36.2722
118 1 141.968 1.01668 -36.2722
120 1 145.157 1.01668 -36.2722
122 1 148.346 1.01668 -36.2722
124 1 151.535 1.01668 -36.2722
126 1 154.724 1.01668 -36.2722
128 1 157.913 1.01668 -36.2722
130 1 161.102 1.01668 -36.2722
132 1 164.291 1.01668 -36.2722
134 1 -44.5567 3.68225 -36.2894
136 1 -41.3998 3.77843 -36.2722
138 1 -38.2108 3.77843 -36.2722
140 1 -35.0218 3.77843 -36.2722
142 1 -31.8328 3.77843 -36.2722
144 1 -28.6438 3.77843 -36.2722
146 1 -25.4548 3.77843 -36.2722
148 1 -22.2658 3.77843 -36.2722
150 1 -19.0768 3.77843 -36.2722
152 1 -15.8878 3.77843 -36.2722
154 1 -12.6988 3.77843 -36.2722
156 1 -9.50983 3.77843 -36.2722
158 1 -6.32083 3.77843 -36.2722
160 1 -3.13183 3.77843 -36.2722
162 1 0.0571683 3.77843 -36.2722
164 1 3.24617 3.77843 -36.2722
166 1 6.43517 3.77843 -36.2722
168 1 9.62417 3.77843 -36.2722
170 1 12.8132 3.77843 -36.2722
172 1 16.0022 3.77843 -36.2722
174 1 19.1912 3.77843 -36.2722
176 1 22.3802 3.77843 -36.2722
178 1 25.5692 3.77843 -36.2722
180 1 28.7582 3.77843 -36.2722
182 1 31.9472 3.77843 -36.2722
184 1 35.1362 3.77843 -36.2722
186 1 38.3252 3.77843 -36.2722
188 1 41.5142 3.77843 -36.2722
190 1 44.7032 3.77843 -36.2722
192 1 47.8922 3.77843 -36.2722
194 1 51.0812 3.77843 -36.2722
196 1 54.2702 3.77843 -36.2722