ITEM: TIMESTEP
20500
ITEM: NUMBER OF ATOMS
14121
ITEM: BOX BOUNDS ss ss ss
-9.2508152983892771e+01 6.7087044742052251e+02
-1.0231754111503553e+00 7.6264566170014405e+01
-9.2493716683209968e+01 5.2436956591756905e+02
ITEM: ATOMS id type x y z
1 1 -92.5639 0 -92.5639
3 1 -89.3749 0 -92.5639
5 1 -86.1859 0 -92.5639
7 1 -82.9969 0 -92.5639
9 1 -79.8079 0 -92.5639
11 1 -76.6189 0 -92.5639
13 1 -73.4299 0 -92.5639
15 1 -70.2409 0 -92.5639
17 1 -67.0519 0 -92.5639
19 1 -63.8629 0 -92.5639
21 1 -60.6739 0 -92.5639
23 1 -57.4849 0 -92.5639
25 1 -54.2959 0 -92.5639
27 1 -51.1069 0 -92.5639
29 1 -47.9179 0 -92.5639
31 1 -44.7289 0 -92.5639
33 1 -41.5399 0 -92.5639
35 1 -38.3509 0 -92.5639
37 1 -35.1619 0 -92.5639
39 1 -31.9729 0 -92.5639
41 1 -28.7839 0 -92.5639
43 1 -25.5949 0 -92.5639
45 1 -22.4059 0 -92.5639
47 1 -19.2169 0 -92.5639
49 1 -16.0279 0 -92.5639
51 1 -12.8389 0 -92.5639
53 1 -9.64991 0 -92.5639
55 1 -6.46091 0 -92.5639
57 1 -3.27191 0 -92.5639
59 1 -0.0829127 0 -92.5639
61 1 3.10609 0 -92.5639
63 1 6.29509 0 -92.5639
65 1 9.48409 0 -92.5639
67 1 12.6731 0 -92.5639
69 1 15.8621 0 -92.5639
71 1 19.0511 0 -92.5639
73 1 22.2401 0 -92.5639
75 1 25.4291 0 -92.5639
77 1 28.6181 0 -92.5639
79 1 31.8071 0 -92.5639
81 1 34.9961 0 -92.5639
83 1 38.1851 0 -92.5639
85 1 41.3741 0 -92.5639
87 1 44.5631 0 -92.5639
89 1 47.7521 0 -92.5639
91 1 50.9411 0 -92.5639
93 1 54.1301 0 -92.5639
95 1 57.3191 0 -92.5639
97 1 60.5081 0 -92.5639
99 1 63.6971 0 -92.5639
101 1 66.8861 0 -92.5639
103 1 70.0751 0 -92.5639
105 1 73.2641 0 -92.5639
107 1 76.4531 0 -92.5639
109 1 79.6421 0 -92.5639
111 1 82.8311 0 -92.5639
113 1 86.0201 0 -92.5639
115 1 89.2091 0 -92.5639
117 1 92.3981 0 -92.5639
119 1 95.5871 0 -92.5639
121 1 98.7761 0 -92.5639
123 1 101.965 0 -92.5639
125 1 105.154 0 -92.5639
127 1 108.343 0 -92.5639
129 1 111.532 0 -92.5639
131 1 114.721 0 -92.5639
133 1 117.91 0 -92.5639
135 1 -90.9694 2.76176 -92.5639
137 1 -87.7804 2.76176 -92.5639
139 1 -84.5914 2.76176 -92.5639
141 1 -81.4024 2.76176 -92.5639
143 1 -78.2134 2.76176 -92.5639
145 1 -75.0244 2.76176 -92.5639
147 1 -71.8354 2.76176 -92.5639
149 1 -68.6464 2.76176 -92.5639
151 1 -65.4574 2.76176 -92.5639
153 1 -62.2684 2.76176 -92.5639
155 1 -59.0794 2.76176 -92.5639
157 1 -55.8904 2.76176 -92.5639
159 1 -52.7014 2.76176 -92.5639
161 1 -49.5124 2.76176 -92.5639
163 1 -46.3234 2.76176 -92.5639
165 1 -43.1344 2.76176 -92.5639
167 1 -39.9454 2.76176 -92.5639
169 1 -36.7564 2.76176 -92.5639
171 1 -33.5674 2.76176 -92.5639
173 1 -30.3784 2.76176 -92.5639
175 1 -27.1894 2.76176 -92.5639
177 1 -24.0004 2.76176 -92.5639
179 1 -20.8114 2.76176 -92.5639
181 1 -17.6224 2.76176 -92.5639
183 1 -14.4334 2.76176 -92.5639
185 1 -11.2444 2.76176 -92.5639
187 1 -8.05541 2.76176 -92.5639
189 1 -4.86641 2.76176 -92.5639
191 1 -1.67741 2.76176 -92.5639
193 1 1.51159 2.76176 -92.5639
195 1 4.70059 2.76176 -92.5639
197 1 7.88959 2.76176 -92.5639
199 1 11.0786 2.76176 -92.5639
201 1 14.2676 2.76176 -92.5639
203 1 17.4566 2.76176 -92.5639
205 1 20.6456 2.76176 -92.5639
207 1 23.8346 2.76176 -92.5639
209 1 27.0236 2.76176 -92.5639
211 1 30.2126 2.76176 -92.5639
213 1 33.4016 2.76176 -92.5639
215 1 36.5906 2.76176 -92.5639
217 1 39.7796 2.76176 -92.5639
219 1 42.9686 2.76176 -92.5639
221 1 46.1576 2.76176 -92.5639
223 1 49.3466 2.76176 -92.5639
225 1 52.5356 2.76176 -92.5639
227 1 55.7246 2.76176 -92.5639
229 1 58.9136 2.76176 -92.5639
231 1 62.1026 2.76176 -92.5639
233 1 65.2916 2.76176 -92.5639
235 1 68.4806 2.76176 -92.5639
237 1 71.6696 2.76176 -92.5639
239 1 74.8586 2.76176 -92.5639
241 1 78.0476 2.76176 -92.5639
243 1 81.2366 2.76176 -92.5639
245 1 84.4256 2.76176 -92.5639
247 1 87.6146 2.76176 -92.5639
249 1 90.8036 2.76176 -92.5639
251 1 93.9926 2.76176 -92.5639
253 1 97.1816 2.76176 -92.5639
255 1 100.371 2.76176 -92.5639
257 1 103.56 2.76176 -92.5639
259 1 106.749 2.76176 -92.5639
261 1 109.938 2.76176 -92.5639
263 1 113.127 2.76176 -92.5639
265 1 116.316 2.76176 -92.5639
266 1 -92.5639 5.52351 -92.5639
268 1 -89.3749 5.52351 -92.5639
270 1 -86.1859 5.52351 -92.5639
272 1 -82.9969 5.52351 -92.5639
274 1 -79.8079 5.52351 -92.5639
276 1 -76.6189 5.52351 -92.5639
278 1 -73.4299 5.52351 -92.5639
280 1 -70.2409 5.52351 -92.5639
282 1 -67.0519 5.52351 -92.5639
284 1 -63.8629 5.52351 -92.5639
286 1 -60.6739 5.52351 -92.5639
288 1 -57.4849 5.52351 -92.5639
290 1 -54.2959 5.52351 -92.5639
292 1 -51.1069 5.52351 -92.5639
294 1 -47.9179 5.52351 -92.5639
296 1 -44.7289 5.52351 -92.5639
298 1 -41.5399 5.52351 -92.5639
300 1 -38.3509 5.52351 -92.5639
302 1 -35.1619 5.52351 -92.5639
304 1 -31.9729 5.52351 -92.5639
306 1 -28.7839 5.52351 -92.5639
308 1 -25.5949 5.52351 -92.5639
310 1 -22.4059 5.52351 -92.5639
312 1 -19.2169 5.52351 -92.5639
314 1 -16.0279 5.52351 -92.5639
316 1 -12.8389 5.52351 -92.5639
318 1 -9.64991 5.52351 -92.5639
320 1 -6.46091 5.52351 -92.5639
322 1 -3.27191 5.52351 -92.5639
324 1 -0.0829127 5.52351 -92.5639
326 1 3.10609 5.52351 -92.5639
328 1 6.29509 5.52351 -92.5639
330 1 9.48409 5.52351 -92.5639
332 1 12.6731 5.52351 -92.5639
334 1 15.8621 5.52351 -92.5639
336 1 19.0511 5.52351 -92.5639
338 1 22.2401 5.52351 -92.5639
340 1 25.4291 5.52351 -92.5639
342 1 28.6181 5.52351 -92.5639
344 1 31.8071 5.52351 -92.5639
346 1 34.9961 5.52351 -92.5639
348 1 38.1851 5.52351 -92.5639
350 1 41.3741 5.52351 -92.5639
352 1 44.5631 5.52351 -92.5639
354 1 47.7521 5.52351 -92.5639
356 1 50.9411 5.52351 -92.5639
358 1 54.1301 5.52351 -92.5639
360 1 57.3191 5.52351 -92.5639
362 1 60.5081 5.52351 -92.5639
364 1 63.6971 5.52351 -92.5639
366 1 66.8861 5.52351 -92.5639
368 1 70.0751 5.52351 -92.5639
370 1 73.2641 5.52351 -92.5639
372 1 76.4531 5.52351 -92.5639
374 1 79.6421 5.52351 -92.5639
376 1 82.8311 5.52351 -92.5639
378 1 86.0201 5.52351 -92.5639
380 1 89.2091 5.52351 -92.5639
382 1 92.3981 5.52351 -92.5639
384 1 95.5871 5.52351 -92.5639
386 1 98.7761 5.52351 -92.5639
388 1 101.965 5.52351 -92.5639
390 1 105.154 5.52351 -92.5639
392 1 108.343 5.52351 -92.5639
394 1 111.532 5.52351 -92.5639
396 1 114.721 5.52351 -92.5639
398 1 117.91 5.52351 -92.5639
400 1 -90.9694 8.28527 -92.5639
402 1 -87.7804 8.28527 -92.5639
404 1 -84.5914 8.28527 -92.5639
406 1 -81.4024 8.28527 -92.5639
408 1 -78.2134 8.28527 -92.5639
410 1 -75.0244 8.28527 -92.5639
412 1 -71.8354 8.28527 -92.5639
414 1 -68.6464 8.28527 -92.5639
416 1 -65.4574 8.28527 -92.5639
418 1 -62.2684 8.28527 -92.5639
420 1 -59.0794 8.28527 -92.5639
422 1 -55.8904 8.28527 -92.5639
424 1 -52.7014 8.28527 -92.5639
426 1 -49.5124 8.28527 -92.5639
428 1 -46.3234 8.28527 -92.5639
430 1 -43.1344 8.28527 -92.5639
432 1 -39.9454 8.28527 -92.5639
434 1 -36.7564 8.28527 -92.5639
436 1 -33.5674 8.28527 -92.5639
438 1 -30.3784 8.28527 -92.5639
440 1 -27.1894 8.28527 -92.5639
442 1 -24.0004 8.28527 -92.5639
444 1 -20.8114 8.28527 -92.5639
446 1 -17.6224 8.28527 -92.5639
448 1 -14.4334 8.28527 -92.5639
450 1 -11.2444 8.28527 -92.5639
452 1 -8.05541 8.28527 -92.5639
454 1 -4.86641 8.28527 -92.5639
456 1 -1.67741 8.28527 -92.5639
458 1 1.51159 8.28527 -92.5639
460 1 4.70059 8.28527 -92.5639
462 1 7.88959 8.28527 -92.5639
464 1 11.0786 8.28527 -92.5639
466 1 14.2676 8.28527 -92.5639
468 1 17.4566 8.28527 -92.5639
470 1 20.6456 8.28527 -92.5639
472 1 23.8346 8.28527 -92.5639
474 1 27.0236 8.28527 -92.5639
476 1 30.2126 8.28527 -92.5639
478 1 33.4016 8.28527 -92.5639
480 1 36.5906 8.28527 -92.5639
482 1 39.7796 8.28527 -92.5639
484 1 42.9686 8.28527 -92.5639
486 1 46.1576 8.28527 -92.5639
488 1 49.3466 8.28527 -92.5639
490 1 52.5356 8.28527 -92.5639
492 1 55.7246 8.28527 -92.5639
494 1 58.9136 8.28527 -92.5639
496 1 62.1026 8.28527 -92.5639
498 1 65.2916 8.28527 -92.5639
500 1 68.4806 8.28527 -92.5639
502 1 71.6696 8.28527 -92.5639
504 1 74.8586 8.28527 -92.5639
506 1 78.0476 8.28527 -92.5639
508 1 81.2366 8.28527 -92.5639
510 1 84.4256 8.28527 -92.5639
512 1 87.6146 8.28527 -92.5639
514 1 90.8036 8.28527 -92.5639
516 1 93.9926 8.28527 -92.5639
518 1 97.1816 8.28527 -92.5639
520 1 100.371 8.28527 -92.5639
522 1 103.56 8.28527 -92.5639
524 1 106.749 8.28527 -92.5639
526 1 109.938 8.28527 -92.5639
528 1 113.127 8.28527 -92.5639
530 1 116.316 8.28527 -92.5639
531 1 -92.5639 11.047 -92.5639
533 1 -89.3749 11.047 -92.5639
535 1 -86.1859 11.047 -92.5639
537 1 -82.9969 11.047 -92.5639
539 1 -79.8079 11.047 -92.5639
541 1 -76.6189 11.047 -92.5639
543 1 -73.4299 11.047 -92.5639
545 1 -70.2409 11.047 -92.5639
547 1 -67.0519 11.047 -92.5639
549 1 -63.8629 11.047 -92.5639
551 1 -60.6739 11.047 -92.5639
553 1 -57.4849 11.047 -92.5639
555 1 -54.2959 11.047 -92.5639
557 1 -51.1069 11.047 -92.5639
559 1 -47.9179 11.047 -92.5639
561 1 -44.7289 11.047 -92.5639
563 1 -41.5399 11.047 -92.5639
565 1 -38.3509 11.047 -92.5639
567 1 -35.1619 11.047 -92.5639
569 1 -31.9729 11.047 -92.5639
571 1 -28.7839 11.047 -92.5639
573 1 -25.5949 11.047 -92.5639
575 1 -22.4059 11.047 -92.5639
577 1 -19.2169 11.047 -92.5639
579 1 -16.0279 11.047 -92.5639
581 1 -12.8389 11.047 -92.5639
583 1 -9.64991 11.047 -92.5639
585 1 -6.46091 11.047 -92.5639
587 1 -3.27191 11.047 -92.5639
589 1 -0.0829127 11.047 -92.5639
591 1 3.10609 11.047 -92.5639
593 1 6.29509 11.047 -92.5639
595 1 9.48409 11.047 -92.5639
597 1 12.6731 11.047 -92.5639
599 1 15.8621 11.047 -92.5639
601 1 19.0511 11.047 -92.5639
603 1 22.2401 11.047 -92.5639
605 1 25.4291 11.047 -92.5639
607 1 28.6181 11.047 -92.5639
609 1 31.8071 11.047 -92.5639
611 1 34.9961 11.047 -92.5639
613 1 38.1851 11.047 -92.5639
615 1 41.3741 11.047 -92.5639
617 1 44.5631 11.047 -92.5639
619 1 47.7521 11.047 -92.5639
621 1 50.9411 11.047 -92.5639
623 1 54.1301 11.047 -92.5639
625 1 57.3191 11.047 -92.5639
627 1 60.5081 11.047 -92.5639
629 1 63.6971 11.047 -92.5639
631 1 66.8861 11.047 -92.5639
633 1 70.0751 11.047 -92.5639
635 1 73.2641 11.047 -92.5639
637 1 76.4531 11.047 -92.5639
639 1 79.6421 11.047 -92.5639
641 1 82.8311 11.047 -92.5639
643 1 86.0201 11.047 -92.5639
645 1 89.2091 11.047 -92.5639
647 1 92.3981 11.047 -92.5639
649 1 95.5871 11.047 -92.5639
651 1 98.7761 11.047 -92.5639
653 1 101.965 11.047 -92.5639
655 1 105.154 11.047 -92.5639
657 1 108.343 11.047 -92.5639
659 1 111.532 11.047 -92.5639
661 1 114.721 11.047 -92.5639
663 1 117.91 11.047 -92.5639
665 1 -90.9694 13.8088 -92.5639
667 1 -87.7804 13.8088 -92.5639
669 1 -84.5914 13.8088 -92.5639
671 1 -81.4024 13.8088 -92.5639
673 1 -78.2134 13.8088 -92.5639
675 1 -75.0244 13.8088 -92.5639
677 1 -71.8354 13.8088 -92.5639
679 1 -68.6464 13.8088 -92.5639
681 1 -65.4574 13.8088 -92.5639
683 1 -62.2684 13.8088 -92.5639
685 1 -59.0794 13.8088 -92.5639
687 1 -55.8904 13.8088 -92.5639
689 1 -52.7014 13.8088 -92.5639
691 1 -49.5124 13.8088 -92.5639
693 1 -46.3234 13.8088 -92.5639
695 1 -43.1344 13.8088 -92.5639
697 1 -39.9454 13.8088 -92.5639
699 1 -36.7564 13.8088 -92.5639
701 1 -33.5674 13.8088 -92.5639
703 1 -30.3784 13.8088 -92.5639
705 1 -27.1894 13.8088 -92.5639
707 1 -24.0004 13.8088 -92.5639
709 1 -20.8114 13.8088 -92.5639
711 1 -17.6224 13.8088 -92.5639
713 1 -14.4334 13.8088 -92.5639
715 1 -11.2444 13.8088 -92.5639
717 1 -8.05541 13.8088 -92.5639
719 1 -4.86641 13.8088 -92.5639
721 1 -1.67741 13.8088 -92.5639
723 1 1.51159 13.8088 -92.5639
725 1 4.70059 13.8088 -92.5639
727 1 7.88959 13.8088 -92.5639
729 1 11.0786 13.8088 -92.5639
731 1 14.2676 13.8088 -92.5639
733 1 17.4566 13.8088 -92.5639
735 1 20.6456 13.8088 -92.5639
737 1 23.8346 13.8088 -92.5639
739 1 27.0236 13.8088 -92.5639
741 1 30.2126 13.8088 -92.5639
743 1 33.4016 13.8088 -92.5639
745 1 36.5906 13.8088 -92.5639
747 1 39.7796 13.8088 -92.5639
749 1 42.9686 13.8088 -92.5639
751 1 46.1576 13.8088 -92.5639
753 1 49.3466 13.8088 -92.5639
755 1 52.5356 13.8088 -92.5639
757 1 55.7246 13.8088 -92.5639
759 1 58.9136 13.8088 -92.5639
761 1 62.1026 13.8088 -92.5639
763 1 65.2916 13.8088 -92.5639
765 1 68.4806 13.8088 -92.5639
767 1 71.6696 13.8088 -92.5639
769 1 74.8586 13.8088 -92.5639
771 1 78.0476 13.8088 -92.5639
773 1 81.2366 13.8088 -92.5639
775 1 84.4256 13.8088 -92.5639
777 1 87.6146 13.8088 -92.5639
779 1 90.8036 13.8088 -92.5639
781 1 93.9926 13.8088 -92.5639
783 1 97.1816 13.8088 -92.5639
785 1 100.371 13.8088 -92.5639
787 1 103.56 13.8088 -92.5639
789 1 106.749 13.8088 -92.5639
791 1 109.938 13.8088 -92.5639
793 1 113.127 13.8088 -92.5639
795 1 116.316 13.8088 -92.5639
796 1 -92.5639 16.5705 -92.5639
798 1 -89.3749 16.5705 -92.5639
800 1 -86.1859 16.5705 -92.5639
802 1 -82.9969 16.5705 -92.5639
804 1 -79.8079 16.5705 -92.5639
806 1 -76.6189 16.5705 -92.5639
808 1 -73.4299 16.5705 -92.5639
810 1 -70.2409 16.5705 -92.5639
812 1 -67.0519 16.5705 -92.5639
814 1 -63.8629 16.5705 -92.5639
816 1 -60.6739 16.5705 -92.5639
818 1 -57.4849 16.5705 -92.5639
820 1 -54.2959 16.5705 -92.5639
822 1 -51.1069 16.5705 -92.5639
824 1 -47.9179 16.5705 -92.5639
826 1 -44.7289 16.5705 -92.5639
828 1 -41.5399 16.5705 -92.5639
830 1 -38.3509 16.5705 -92.5639
832 1 -35.1619 16.5705 -92.5639
834 1 -31.9729 16.5705 -92.5639
836 1 -28.7839 16.5705 -92.5639
838 1 -25.5949 16.5705 -92.5639
840 1 -22.4059 16.5705 -92.5639
842 1 -19.2169 16.5705 -92.5639
844 1 -16.0279 16.5705 -92.5639
846 1 -12.8389 16.5705 -92.5639
848 1 -9.64991 16.5705 -92.5639
850 1 -6.46091 16.5705 -92.5639
852 1 -3.27191 16.5705 -92.5639
854 1 -0.0829127 16.5705 -92.5639
856 1 3.10609 16.5705 -92.5639
858 1 6.29509 16.5705 -92.5639
860 1 9.48409 16.5705 -92.5639
862 1 12.6731 16.5705 -92.5639
864 1 15.8621 16.5705 -92.5639
866 1 19.0511 16.5705 -92.5639
868 1 22.2401 16.5705 -92.5639
870 1 25.4291 16.5705 -92.5639
872 1 28.6181 16.5705 -92.5639
874 1 31.8071 16.5705 -92.5639
876 1 34.9961 16.5705 -92.5639
878 1 38.1851 16.5705 -92.5639
880 1 41.3741 16.5705 -92.5639
882 1 44.5631 16.5705 -92.5639
884 1 47.7521 16.5705 -92.5639
886 1 50.9411 16.5705 -92.5639
888 1 54.1301 16.5705 -92.5639
890 1 57.3191 16.5705 -92.5639
892 1 60.5081 16.5705 -92.5639
894 1 63.6971 16.5705 -92.5639
896 1 66.8861 16.5705 -92.5639
898 1 70.0751 16.5705 -92.5639
900 1 73.2641 16.5705 -92.5639
902 1 76.4531 16.5705 -92.5639
904 1 79.6421 16.5705 -92.5639
906 1 82.8311 16.5705 -92.5639
908 1 86.0201 16.5705 -92.5639
910 1 89.2091 16.5705 -92.5639
912 1 92.3981 16.5705 -92.5639
914 1 95.5871 16.5705 -92.5639
916 1 98.7761 16.5705 -92.5639
918 1 101.965 16.5705 -92.5639
920 1 105.154 16.5705 -92.5639
922 1 108.343 16.5705 -92.5639
924 1 111.532 16.5705 -92.5639
926 1 114.721 16.5705 -92.5639
928 1 117.91 16.5705 -92.5639
930 1 -90.9694 19.3323 -92.5639
932 1 -87.7804 19.3323 -92.5639
934 1 -84.5914 19.3323 -92.5639
936 1 -81.4024 19.3323 -92.5639
938 1 -78.2134 19.3323 -92.5639
940 1 -75.0244 19.3323 -92.5639
942 1 -71.8354 19.3323 -92.5639
944 1 -68.6464 19.3323 -92.5639
946 1 -65.4574 19.3323 -92.5639
948 1 -62.2684 19.3323 -92.5639
950 1 -59.0794 19.3323 -92.5639
952 1 -55.8904 19.3323 -92.5639
954 1 -52.7014 19.3323 -92.5639
956 1 -49.5124 19.3323 -92.5639
958 1 -46.3234 19.3323 -92.5639
960 1 -43.1344 19.3323 -92.5639
962 1 -39.9454 19.3323 -92.5639
964 1 -36.7564 19.3323 -92.5639
966 1 -33.5674 19.3323 -92.5639
968 1 -30.3784 19.3323 -92.5639
970 1 -27.1894 19.3323 -92.5639
972 1 -24.0004 19.3323 -92.5639
974 1 -20.8114 19.3323 -92.5639
976 1 -17.6224 19.3323 -92.5639
978 1 -14.4334 19.3323 -92.5639
980 1 -11.2444 19.3323 -92.5639
982 1 -8.05541 19.3323 -92.5639
984 1 -4.86641 19.3323 -92.5639
986 1 -1.67741 19.3323 -92.5639
988 1 1.51159 19.3323 -92.5639
990 1 4.70059 19.3323 -92.5639
992 1 7.88959 19.3323 -92.5639
994 1 11.0786 19.3323 -92.5639
996 1 14.2676 19.3323 -92.5639
998 1 17.4566 19.3323 -92.5639
1000 1 20.6456 19.3323 -92.5639
1002 1 23.8346 19.3323 -92.5639
1004 1 27.0236 19.3323 -92.5639
1006 1 30.2126 19.3323 -92.5639
1008 1 33.4016 19.3323 -92.5639
1010 1 36.5906 19.3323 -92.5639
1012 1 39.7796 19.3323 -92.5639
1014 1 42.9686 19.3323 -92.5639
1016 1 46.1576 19.3323 -92.5639
1018 1 49.3466 19.3323 -92.5639
1020 1 52.5356 19.3323 -92.5639
1022 1 55.7246 19.3323 -92.5639
1024 1 58.9136 19.3323 -92.5639
1026 1 62.1026 19.3323 -92.5639
1028 1 65.2916 19.3323 -92.5639
1030 1 68.4806 19.3323 -92.5639
1032 1 71.6696 19.3323 -92.5639
1034 1 74.8586 19.3323 -92.5639
1036 1 78.0476 19.3323 -92.5639
1038 1 81.2366 19.3323 -92.5639
1040 1 84.4256 19.3323 -92.5639
1042 1 87.6146 19.3323 -92.5639
1044 1 90.8036 19.3323 -92.5639
1046 1 93.9926 19.3323 -92.5639
1048 1 97.1816 19.3323 -92.5639
1050 1 100.371 19.3323 -92.5639
1052 1 103.56 19.3323 -92.5639
1054 1 106.749 19.3323 -92.5639
1056 1 109.938 19.3323 -92.5639
1058 1 113.127 19.3323 -92.5639
1060 1 116.316 19.3323 -92.5639
1061 1 -92.5639 22.094 -92.5639
1063 1 -89.3749 22.094 -92.5639
1065 1 -86.1859 22.094 -92.5639
1067 1 -82.9969 22.094 -92.5639
1069 1 -79.8079 22.094 -92.5639
1071 1 -76.6189 22.094 -92.5639
1073 1 -73.4299 22.094 -92.5639
1075 1 -70.2409 22.094 -92.5639
1077 1 -67.0519 22.094 -92.5639
1079 1 -63.8629 22.094 -92.5639
1081 1 -60.6739 22.094 -92.5639
1083 1 -57.4849 22.094 -92.5639
1085 1 -54.2959 22.094 -92.5639
1087 1 -51.1069 22.094 -92.5639
1089 1 -47.9179 22.094 -92.5639
1091 1 -44.7289 22.094 -92.5639
1093 1 -41.5399 22.094 -92.5639
1095 1 -38.3509 22.094 -92.5639
1097 1 -35.1619 22.094 -92.5639
1099 1 -31.9729 22.094 -92.5639
1101 1 -28.7839 22.094 -92.5639
1103 1 -25.5949 22.094 -92.5639
1105 1 -22.4059 22.094 -92.5639
1107 1 -19.2169 22.094 -92.5639
1109 1 -16.0279 22.094 -92.5639
1111 1 -12.8389 22.094 -92.5639
1113 1 -9.64991 22.094 -92.5639
1115 1 -6.46091 22.094 -92.5639
1117 1 -3.27191 22.094 -92.5639
1119 1 -0.0829127 22.094 -92.5639
1121 1 3.10609 22.094 -92.5639
1123 1 6.29509 22.094 -92.5639
1125 1 9.48409 22.094 -92.5639
1127 1 12.6731 22.094 -92.5639
1129 1 15.8621 22.094 -92.5639
1131 1 19.0511 22.094 -92.5639
1133 1 22.2401 22.094 -92.5639
1135 1 25.4291 22.094 -92.5639
1137 1 28.6181 22.094 -92.5639
1139 1 31.8071 22.094 -92.5639
1141 1 34.9961 22.094 -92.5639
1143 1 38.1851 22.094 -92.5639
1145 1 41.3741 22.094 -92.5639
1147 1 44.5631 22.094 -92.5639
1149 1 47.7521 22.094 -92.5639
1151 1 50.9411 22.094 -92.5639
1153 1 54.1301 22.094 -92.5639
1155 1 57.3191 22.094 -92.5639
1157 1 60.5081 22.094 -92.5639
1159 1 63.6971 22.094 -92.5639
1161 1 66.8861 22.094 -92.5639
1163 1 70.0751 22.094 -92.5639
1165 1 73.2641 22.094 -92.5639
1167 1 76.4531 22.094 -92.5639
1169 1 79.6421 22.094 -92.5639
1171 1 82.8311 22.094 -92.5639
1173 1 86.0201 22.094 -92.5639
1175 1 89.2091 22.094 -92.5639
1177 1 92.3981 22.094 -92.5639
1179 1 95.5871 22.094 -92.5639
1181 1 98.7761 22.094 -92.5639
1183 1 101.965 22.094 -92.5639
1185 1 105.154 22.094 -92.5639
1187 1 108.343 22.094 -92.5639
1189 1 111.532 22.094 -92.5639
1191 1 114.721 22.094 -92.5639
1193 1 117.91 22.094 -92.5639
1195 1 -90.9694 24.8558 -92.5639
1197 1 -87.7804 24.8558 -92.5639
1199 1 -84.5914 24.8558 -92.5639
1201 1 -81.4024 24.8558 -92.5639
1203 1 -78.2134 24.8558 -92.5639
1205 1 -75.0244 24.8558 -92.5639
1207 1 -71.8354 24.8558 -92.5639
1209 1 -68.6464 24.8558 -92.5639
1211 1 -65.4574 24.8558 -92.5639
1213 1 -62.2684 24.8558 -92.5639
1215 1 -59.0794 24.8558 -92.5639
1217 1 -55.8904 24.8558 -92.5639
1219 1 -52.7014 24.8558 -92.5639
1221 1 -49.5124 24.8558 -92.5639
1223 1 -46.3234 24.8558 -92.5639
1225 1 -43.1344 24.8558 -92.5639
1227 1 -39.9454 24.8558 -92.5639
1229 1 -36.7564 24.8558 -92.5639
1231 1 -33.5674 24.8558 -92.5639
1233 1 -30.3784 24.8558 -92.5639
1235 1 -27.1894 24.8558 -92.5639
1237 1 -24.0004 24.8558 -92.5639
1239 1 -20.8114 24.8558 -92.5639
1241 1 -17.6224 24.8558 -92.5639
1243 1 -14.4334 24.8558 -92.5639
1245 1 -11.2444 24.8558 -92.5639
1247 1 -8.05541 24.8558 -92.5639
1249 1 -4.86641 24.8558 -92.5639
1251 1 -1.67741 24.8558 -92.5639
1253 1 1.51159 24.8558 -92.5639
1255 1 4.70059 24.8558 -92.5639
1257 1 7.88959 24.8558 -92.5639
1259 1 11.0786 24.8558 -92.5639
1261 1 14.2676 24.8558 -92.5639
1263 1 17.4566 24.8558 -92.5639
1265 1 20.6456 24.8558 -92.5639
1267 1 23.8346 24.8558 -92.5639
1269 1 27.0236 24.8558 -92.5639
1271 1 30.2126 24.8558 -92.5639
1273 1 33.4016 24.8558 -92.5639
1275 1 36.5906 24.8558 -92.5639
1277 1 39.7796 24.8558 -92.5639
1279 1 42.9686 24.8558 -92.5639
1281 1 46.1576 24.8558 -92.5639
1283 1 49.3466 24.8558 -92.5639
1285 1 52.5356 24.8558 -92.5639
1287 1 55.7246 24.8558 -92.5639
1289 1 58.9136 24.8558 -92.5639
1291 1 62.1026 24.8558 -92.5639
1293 1 65.2916 24.8558 -92.5639
1295 1 68.4806 24.8558 -92.5639
1297 1 71.6696 24.8558 -92.5639
1299 1 74.8586 24.8558 -92.5639
1301 1 78.0476 24.8558 -92.5639
1303 1 81.2366 24.8558 -92.5639
1305 1 84.4256 24.8558 -92.5639
1307 1 87.6146 24.8558 -92.5639
1309 1 90.8036 24.8558 -92.5639
1311 1 93.9926 24.8558 -92.5639
1313 1 97.1816 24.8558 -92.5639
1315 1 100.371 24.8558 -92.5639
1317 1 103.56 24.8558 -92.5639
1319 1 106.749 24.8558 -92.5639
1321 1 109.938 24.8558 -92.5639
1323 1 113.127 24.8558 -92.5639
1325 1 116.316 24.8558 -92.5639
1326 1 -92.5639 27.6176 -92.5639
1328 1 -89.3749 27.6176 -92.5639
1330 1 -86.1859 27.6176 -92.5639
1332 1 -82.9969 27.6176 -92.5639
1334 1 -79.8079 27.6176 -92.5639
1336 1 -76.6189 27.6176 -92.5639
1338 1 -73.4299 27.6176 -92.5639
1340 1 -70.2409 27.6176 -92.5639
1342 1 -67.0519 27.6176 -92.5639
1344 1 -63.8629 27.6176 -92.5639
1346 1 -60.6739 27.6176 -92.5639
1348 1 -57.4849 27.6176 -92.5639
1350 1 -54.2959 27.6176 -92.5639
1352 1 -51.1069 27.6176 -92.5639
1354 1 -47.9179 27.6176 -92.5639
1356 1 -44.7289 27.6176 -92.5639
1358 1 -41.5399 27.6176 -92.5639
1360 1 -38.3509 27.6176 -92.5639
1362 1 -35.1619 27.6176 -92.5639
1364 1 -31.9729 27.6176 -92.5639
1366 1 -28.7839 27.6176 -92.5639
1368 1 -25.5949 27.6176 -92.5639
1370 1 -22.4059 27.6176 -92.5639
1372 1 -19.2169 27.6176 -92.5639
1374 1 -16.0279 27.6176 -92.5639
1376 1 -12.8389 27.6176 -92.5639
1378 1 -9.64991 27.6176 -92.5639
1380 1 -6.46091 27.6176 -92.5639
1382 1 -3.27191 27.6176 -92.5639
1384 1 -0.0829127 27.6176 -92.5639
1386 1 3.10609 27.6176 -92.5639
1388 1 6.29509 27.6176 -92.5639
1390 1 9.48409 27.6176 -92.5639
1392 1 12.6731 27.6176 -92.5639
1394 1 15.8621 27.6176 -92.5639
1396 1 19.0511 27.6176 -92.5639
1398 1 22.2401 27.6176 -92.5639
1400 1 25.4291 27.6176 -92.5639
1402 1 28.6181 27.6176 -92.5639
1404 1 31.8071 27.6176 -92.5639
1406 1 34.9961 27.6176 -92.5639
1408 1 38.1851 27.6176 -92.5639
1410 1 41.3741 27.6176 -92.5639
1412 1 44.5631 27.6176 -92.5639
1414 1 47.7521 27.6176 -92.5639
1416 1 50.9411 27.6176 -92.5639
1418 1 54.1301 27.6176 -92.5639
1420 1 57.3191 27.6176 -92.5639
1422 1 60.5081 27.6176 -92.5639
1424 1 63.6971 27.6176 -92.5639
1426 1 66.8861 27.6176 -92.5639
1428 1 70.0751 27.6176 -92.5639
1430 1 73.2641 27.6176 -92.5639
1432 1 76.4531 27.6176 -92.5639
1434 1 79.6421 27.6176 -92.5639
1436 1 82.8311 27.6176 -92.5639
1438 1 86.0201 27.6176 -92.5639
1440 1 89.2091 27.6176 -92.5639
1442 1 92.3981 27.6176 -92.5639
1444 1 95.5871 27.6176 -92.5639
1446 1 98.7761 27.6176 -92.5639
1448 1 101.965 27.6176 -92.5639
1450 1 105.154 27.6176 -92.5639
1452 1 108.343 27.6176 -92.5639
1454 1 111.532 27.6176 -92.5639
1456 1 114.721 27.6176 -92.5639
1458 1 117.91 27.6176 -92.5639
1460 1 -90.9694 30.3793 -92.5639
1462 1 -87.7804 30.3793 -92.5639
1464 1 -84.5914 30.3793 -92.5639
1466 1 -81.4024 30.3793 -92.5639
1468 1 -78.2134 30.3793 -92.5639
1470 1 -75.0244 30.3793 -92.5639
1472 1 -71.8354 30.3793 -92.5639
1474 1 -68.6464 30.3793 -92.5639
1476 1 -65.4574 30.3793 -92.5639
1478 1 -62.2684 30.3793 -92.5639
1480 1 -59.0794 30.3793 -92.5639
1482 1 -55.8904 30.3793 -92.5639
1484 1 -52.7014 30.3793 -92.5639
1486 1 -49.5124 30.3793 -92.5639
1488 1 -46.3234 30.3793 -92.5639
1490 1 -43.1344 30.3793 -92.5639
1492 1 -39.9454 30.3793 -92.5639
1494 1 -36.7564 30.3793 -92.5639
1496 1 -33.5674 30.3793 -92.5639
1498 1 -30.3784 30.3793 -92.5639
1500 1 -27.1894 30.3793 -92.5639
1502 1 -24.0004 30.3793 -92.5639
1504 1 -20.8114 30.3793 -92.5639
1506 1 -17.6224 30.3793 -92.5639
1508 1 -14.4334 30.3793 -92.5639
1510 1 -11.2444 30.3793 -92.5639
1512 1 -8.05541 30.3793 -92.5639
1514 1 -4.86641 30.3793 -92.5639
1516 1 -1.67741 30.3793 -92.5639
1518 1 1.51159 30.3793 -92.5639
1520 1 4.70059 30.3793 -92.5639
1522 1 7.88959 30.3793 -92.5639
1524 1 11.0786 30.3793 -92.5639
1526 1 14.2676 30.3793 -92.5639
1528 1 17.4566 30.3793 -92.5639
1530 1 20.6456 30.3793 -92.5639
1532 1 23.8346 30.3793 -92.5639
1534 1 27.0236 30.3793 -92.5639
1536 1 30.2126 30.3793 -92.5639
1538 1 33.4016 30.3793 -92.5639
1540 1 36.5906 30.3793 -92.5639
1542 1 39.7796 30.3793 -92.5639
1544 1 42.9686 30.3793 -92.5639
1546 1 46.1576 30.3793 -92.5639
1548 1 49.3466 30.3793 -92.5639
1550 1 52.5356 30.3793 -92.5639
1552 1 55.7246 30.3793 -92.5639
1554 1 58.9136 30.3793 -92.5639
1556 1 62.1026 30.3793 -92.5639
1558 1 65.2916 30.3793 -92.5639
1560 1 68.4806 30.3793 -92.5639
1562 1 71.6696 30.3793 -92.5639
1564 1 74.8586 30.3793 -92.5639
1566 1 78.0476 30.3793 -92.5639
1568 1 81.2366 30.3793 -92.5639
1570 1 84.4256 30.3793 -92.5639
1572 1 87.6146 30.3793 -92.5639
1574 1 90.8036 30.3793 -92.5639
1576 1 93.9926 30.3793 -92.5639
1578 1 97.1816 30.3793 -92.5639
1580 1 100.371 30.3793 -92.5639
1582 1 103.56 30.3793 -92.5639
1584 1 106.749 30.3793 -92.5639
1586 1 109.938 30.3793 -92.5639
1588 1 113.127 30.3793 -92.5639
1590 1 116.316 30.3793 -92.5639
1591 1 -92.5639 33.1411 -92.5639
1592 1 -89.3749 33.1411 -92.5639
1593 1 -86.1859 33.1411 -92.5639
1594 1 -82.9969 33.1411 -92.5639
1595 1 -79.8079 33.1411 -92.5639
1596 1 -76.6189 33.1411 -92.5639
1597 1 -73.4299 33.1411 -92.5639
1598 1 -70.2409 33.1411 -92.5639
1599 1 -67.0519 33.1411 -92.5639
1600 1 -63.8629 33.1411 -92.5639
1601 1 -60.6739 33.1411 -92.5639
1602 1 -57.4849 33.1411 -92.5639
1603 1 -54.2959 33.1411 -92.5639
1604 1 -51.1069 33.1411 -92.5639
1605 1 -47.9179 33.1411 -92.5639
1606 1 -44.7289 33.1411 -92.5639
1607 1 -41.5399 33.1411 -92.5639
1608 1 -38.3509 33.1411 -92.5639
1609 1 -35.1619 33.1411 -92.5639
1610 1 -31.9729 33.1411 -92.5639
1611 1 -28.7839 33.1411 -92.5639
1612 1 -25.5949 33.1411 -92.5639
1613 1 -22.4059 33.1411 -92.5639
1614 1 -19.2169 33.1411 -92.5639
1615 1 -16.0279 33.1411 -92.5639
1616 1 -12.8389 33.1411 -92.5639
1617 1 -9.64991 33.1411 -92.5639
1618 1 -6.46091 33.1411 -92.5639
1619 1 -3.27191 33.1411 -92.5639
1620 1 -0.0829127 33.1411 -92.5639
1621 1 3.10609 33.1411 -92.5639
1622 1 6.29509 33.1411 -92.5639
1623 1 9.48409 33.1411 -92.5639
1624 1 12.6731 33.1411 -92.5639
1625 1 15.8621 33.1411 -92.5639
1626 1 19.0511 33.1411 -92.5639
1627 1 22.2401 33.1411 -92.5639
1628 1 25.4291 33.1411 -92.5639
1629 1 28.6181 33.1411 -92.5639
1630 1 31.8071 33.1411 -92.5639
1631 1 34.9961 33.1411 -92.5639
1632 1 38.1851 33.1411 -92.5639
1633 1 41.3741 33.1411 -92.5639
1634 1 44.5631 33.1411 -92.5639
1635 1 47.7521 33.1411 -92.5639
1636 1 50.9411 33.1411 -92.5639
1637 1 54.1301 33.1411 -92.5639
1638 1 57.3191 33.1411 -92.5639
1639 1 60.5081 33.1411 -92.5639
1640 1 63.6971 33.1411 -92.5639
1641 1 66.8861 33.1411 -92.5639
1642 1 70.0751 33.1411 -92.5639
1643 1 73.2641 33.1411 -92.5639
1644 1 76.4531 33.1411 -92.5639
1645 1 79.6421 33.1411 -92.5639
1646 1 82.8311 33.1411 -92.5639
1647 1 86.0201 33.1411 -92.5639
1648 1 89.2091 33.1411 -92.5639
1649 1 92.3981 33.1411 -92.5639
1650 1 95.5871 33.1411 -92.5639
1651 1 98.7761 33.1411 -92.5639
1652 1 101.965 33.1411 -92.5639
1653 1 105.154 33.1411 -92.5639
1654 1 108.343 33.1411 -92.5639
1655 1 111.532 33.1411 -92.5639
1656 1 114.721 33.1411 -92.5639
1657 1 117.91 33.1411 -92.5639
2 1 -91.0014 1.01668 -84.2792
4 1 -87.8124 1.01668 -84.2792
6 1 -84.6234 1.01668 -84.2792
8 1 -81.4344 1.01668 -84.2792
10 1 -78.2454 1.01668 -84.2792
12 1 -75.0564 1.01668 -84.2792
14 1 -71.8674 1.01668 -84.2792
16 1 -68.6784 1.01668 -84.2792
18 1 -65.4894 1.01668 -84.2792
20 1 -62.3004 1.01668 -84.2792
22 1 -59.1114 1.01668 -84.2792
24 1 -55.9224 1.01668 -84.2792
26 1 -52.7334 1.01668 -84.2792
28 1 -49.5444 1.01668 -84.2792
30 1 -46.3554 1.01668 -84.2792
32 1 -43.1664 1.01668 -84.2792
34 1 -39.9774 1.01668 -84.2792
36 1 -36.7884 1.01668 -84.2792
38 1 -33.5994 1.01668 -84.2792
40 1 -30.4104 1.01668 -84.2792
42 1 -27.2214 1.01668 -84.2792
44 1 -24.0324 1.01668 -84.2792
46 1 -20.8434 1.01668 -84.2792
48 1 -17.6544 1.01668 -84.2792
50 1 -14.4654 1.01668 -84.2792
52 1 -11.2764 1.01668 -84.2792
54 1 -8.08741 1.01668 -84.2792
56 1 -4.89841 1.01668 -84.2792
58 1 -1.70941 1.01668 -84.2792
60 1 1.47959 1.01668 -84.2792
62 1 4.66859 1.01668 -84.2792
64 1 7.85759 1.01668 -84.2792
66 1 11.0466 1.01668 -84.2792
68 1 14.2356 1.01668 -84.2792
70 1 17.4246 1.01668 -84.2792
72 1 20.6136 1.01668 -84.2792
74 1 23.8026 1.01668 -84.2792
76 1 26.9916 1.01668 -84.2792
78 1 30.1806 1.01668 -84.2792
80 1 33.3696 1.01668 -84.2792
82 1 36.5586 1.01668 -84.2792
84 1 39.7476 1.01668 -84.2792
86 1 42.9366 1.01668 -84.2792
88 1 46.1256 1.01668 -84.2792
90 1 49.3146 1.01668 -84.2792
92 1 52.5036 1.01668 -84.2792
94 1 55.6926 1.01668 -84.2792
96 1 58.8816 1.01668 -84.2792
98 1 62.0706 1.01668 -84.2792
100 1 65.2596 1.01668 -84.2792
102 1 68.4486 1.01668 -84.2792
104 1 71.6376 1.01668 -84.2792
106 1 74.8266 1.01668 -84.2792
108 1 78.0156 1.01668 -84.2792
110 1 81.2046 1.01668 -84.2792
112 1 84.3936 1.01668 -84.2792
114 1 87.5826 1.01668 -84.2792
116 1 90.7716 1.01668 -84.2792
118 1 93.9606 1.01668 -84.2792
120 1 97.1496 1.01668 -84.2792
122 1 100.339 1.01668 -84.2792
124 1 103.528 1.01668 -84.2792
126 1 106.717 1.01668 -84.2792
128 1 109.906 1.01668 -84.2792
130 1 113.095 1.01668 -84.2792
132 1 116.284 1.01668 -84.2792
134 1 -92.5638 3.68225 -84.2964
136 1 -89.4069 3.77843 -84.2792
138 1 -86.2179 3.77843 -84.2792
140 1 -83.0289 3.77843 -84.2792
142 1 -79.8399 3.77843 -84.2792
144 1 -76.6509 3.77843 -84.2792
146 1 -73.4619 3.77843 -84.2792
148 1 -70.2729 3.77843 -84.2792
150 1 -67.0839 3.77843 -84.2792
152 1 -63.8949 3.77843 -84.2792
154 1 -60.7059 3.77843 -84.2792
156 1 -57.5169 3.77843 -84.2792
158 1 -54.3279 3.77843 -84.2792
160 1 -51.1389 3.77843 -84.2792
162 1 -47.9499 3.77843 -84.2792
164 1 -44.7609 3.77843 -84.2792
166 1 -41.5719 3.77843 -84.2792
168 1 -38.3829 3.77843 -84.2792
170 1 -35.1939 3.77843 -84.2792
172 1 -32.0049 3.77843 -84.2792
174 1 -28.8159 3.77843 -84.2792
176 1 -25.6269 3.77843 -84.2792
178 1 -22.4379 3.77843 -84.2792