ITEM: TIMESTEP
17000
ITEM: NUMBER OF ATOMS
14121
ITEM: BOX BOUNDS ss ss ss
-7.0156058921658300e+01 5.5960786054967423e+02
-1.0231754111503553e+00 4.3320111273906996e+01
-7.0141622620975497e+01 4.1310697904672077e+02
ITEM: ATOMS id type x y z
1 1 -70.1606 0 -70.1606
3 1 -66.9716 0 -70.1606
5 1 -63.7826 0 -70.1606
7 1 -60.5936 0 -70.1606
9 1 -57.4046 0 -70.1606
11 1 -54.2156 0 -70.1606
13 1 -51.0266 0 -70.1606
15 1 -47.8376 0 -70.1606
17 1 -44.6486 0 -70.1606
19 1 -41.4596 0 -70.1606
21 1 -38.2706 0 -70.1606
23 1 -35.0816 0 -70.1606
25 1 -31.8926 0 -70.1606
27 1 -28.7036 0 -70.1606
29 1 -25.5146 0 -70.1606
31 1 -22.3256 0 -70.1606
33 1 -19.1366 0 -70.1606
35 1 -15.9476 0 -70.1606
37 1 -12.7586 0 -70.1606
39 1 -9.56961 0 -70.1606
41 1 -6.38061 0 -70.1606
43 1 -3.19161 0 -70.1606
45 1 -0.00261109 0 -70.1606
47 1 3.18639 0 -70.1606
49 1 6.37539 0 -70.1606
51 1 9.56439 0 -70.1606
53 1 12.7534 0 -70.1606
55 1 15.9424 0 -70.1606
57 1 19.1314 0 -70.1606
59 1 22.3204 0 -70.1606
61 1 25.5094 0 -70.1606
63 1 28.6984 0 -70.1606
65 1 31.8874 0 -70.1606
67 1 35.0764 0 -70.1606
69 1 38.2654 0 -70.1606
71 1 41.4544 0 -70.1606
73 1 44.6434 0 -70.1606
75 1 47.8324 0 -70.1606
77 1 51.0214 0 -70.1606
79 1 54.2104 0 -70.1606
81 1 57.3994 0 -70.1606
83 1 60.5884 0 -70.1606
85 1 63.7774 0 -70.1606
87 1 66.9664 0 -70.1606
89 1 70.1554 0 -70.1606
91 1 73.3444 0 -70.1606
93 1 76.5334 0 -70.1606
95 1 79.7224 0 -70.1606
97 1 82.9114 0 -70.1606
99 1 86.1004 0 -70.1606
101 1 89.2894 0 -70.1606
103 1 92.4784 0 -70.1606
105 1 95.6674 0 -70.1606
107 1 98.8564 0 -70.1606
109 1 102.045 0 -70.1606
111 1 105.234 0 -70.1606
113 1 108.423 0 -70.1606
115 1 111.612 0 -70.1606
117 1 114.801 0 -70.1606
119 1 117.99 0 -70.1606
121 1 121.179 0 -70.1606
123 1 124.368 0 -70.1606
125 1 127.557 0 -70.1606
127 1 130.746 0 -70.1606
129 1 133.935 0 -70.1606
131 1 137.124 0 -70.1606
133 1 140.313 0 -70.1606
135 1 -68.5661 2.76176 -70.1606
137 1 -65.3771 2.76176 -70.1606
139 1 -62.1881 2.76176 -70.1606
141 1 -58.9991 2.76176 -70.1606
143 1 -55.8101 2.76176 -70.1606
145 1 -52.6211 2.76176 -70.1606
147 1 -49.4321 2.76176 -70.1606
149 1 -46.2431 2.76176 -70.1606
151 1 -43.0541 2.76176 -70.1606
153 1 -39.8651 2.76176 -70.1606
155 1 -36.6761 2.76176 -70.1606
157 1 -33.4871 2.76176 -70.1606
159 1 -30.2981 2.76176 -70.1606
161 1 -27.1091 2.76176 -70.1606
163 1 -23.9201 2.76176 -70.1606
165 1 -20.7311 2.76176 -70.1606
167 1 -17.5421 2.76176 -70.1606
169 1 -14.3531 2.76176 -70.1606
171 1 -11.1641 2.76176 -70.1606
173 1 -7.97511 2.76176 -70.1606
175 1 -4.78611 2.76176 -70.1606
177 1 -1.59711 2.76176 -70.1606
179 1 1.59189 2.76176 -70.1606
181 1 4.78089 2.76176 -70.1606
183 1 7.96989 2.76176 -70.1606
185 1 11.1589 2.76176 -70.1606
187 1 14.3479 2.76176 -70.1606
189 1 17.5369 2.76176 -70.1606
191 1 20.7259 2.76176 -70.1606
193 1 23.9149 2.76176 -70.1606
195 1 27.1039 2.76176 -70.1606
197 1 30.2929 2.76176 -70.1606
199 1 33.4819 2.76176 -70.1606
201 1 36.6709 2.76176 -70.1606
203 1 39.8599 2.76176 -70.1606
205 1 43.0489 2.76176 -70.1606
207 1 46.2379 2.76176 -70.1606
209 1 49.4269 2.76176 -70.1606
211 1 52.6159 2.76176 -70.1606
213 1 55.8049 2.76176 -70.1606
215 1 58.9939 2.76176 -70.1606
217 1 62.1829 2.76176 -70.1606
219 1 65.3719 2.76176 -70.1606
221 1 68.5609 2.76176 -70.1606
223 1 71.7499 2.76176 -70.1606
225 1 74.9389 2.76176 -70.1606
227 1 78.1279 2.76176 -70.1606
229 1 81.3169 2.76176 -70.1606
231 1 84.5059 2.76176 -70.1606
233 1 87.6949 2.76176 -70.1606
235 1 90.8839 2.76176 -70.1606
237 1 94.0729 2.76176 -70.1606
239 1 97.2619 2.76176 -70.1606
241 1 100.451 2.76176 -70.1606
243 1 103.64 2.76176 -70.1606
245 1 106.829 2.76176 -70.1606
247 1 110.018 2.76176 -70.1606
249 1 113.207 2.76176 -70.1606
251 1 116.396 2.76176 -70.1606
253 1 119.585 2.76176 -70.1606
255 1 122.774 2.76176 -70.1606
257 1 125.963 2.76176 -70.1606
259 1 129.152 2.76176 -70.1606
261 1 132.341 2.76176 -70.1606
263 1 135.53 2.76176 -70.1606
265 1 138.719 2.76176 -70.1606
266 1 -70.1606 5.52351 -70.1606
268 1 -66.9716 5.52351 -70.1606
270 1 -63.7826 5.52351 -70.1606
272 1 -60.5936 5.52351 -70.1606
274 1 -57.4046 5.52351 -70.1606
276 1 -54.2156 5.52351 -70.1606
278 1 -51.0266 5.52351 -70.1606
280 1 -47.8376 5.52351 -70.1606
282 1 -44.6486 5.52351 -70.1606
284 1 -41.4596 5.52351 -70.1606
286 1 -38.2706 5.52351 -70.1606
288 1 -35.0816 5.52351 -70.1606
290 1 -31.8926 5.52351 -70.1606
292 1 -28.7036 5.52351 -70.1606
294 1 -25.5146 5.52351 -70.1606
296 1 -22.3256 5.52351 -70.1606
298 1 -19.1366 5.52351 -70.1606
300 1 -15.9476 5.52351 -70.1606
302 1 -12.7586 5.52351 -70.1606
304 1 -9.56961 5.52351 -70.1606
306 1 -6.38061 5.52351 -70.1606
308 1 -3.19161 5.52351 -70.1606
310 1 -0.00261109 5.52351 -70.1606
312 1 3.18639 5.52351 -70.1606
314 1 6.37539 5.52351 -70.1606
316 1 9.56439 5.52351 -70.1606
318 1 12.7534 5.52351 -70.1606
320 1 15.9424 5.52351 -70.1606
322 1 19.1314 5.52351 -70.1606
324 1 22.3204 5.52351 -70.1606
326 1 25.5094 5.52351 -70.1606
328 1 28.6984 5.52351 -70.1606
330 1 31.8874 5.52351 -70.1606
332 1 35.0764 5.52351 -70.1606
334 1 38.2654 5.52351 -70.1606
336 1 41.4544 5.52351 -70.1606
338 1 44.6434 5.52351 -70.1606
340 1 47.8324 5.52351 -70.1606
342 1 51.0214 5.52351 -70.1606
344 1 54.2104 5.52351 -70.1606
346 1 57.3994 5.52351 -70.1606
348 1 60.5884 5.52351 -70.1606
350 1 63.7774 5.52351 -70.1606
352 1 66.9664 5.52351 -70.1606
354 1 70.1554 5.52351 -70.1606
356 1 73.3444 5.52351 -70.1606
358 1 76.5334 5.52351 -70.1606
360 1 79.7224 5.52351 -70.1606
362 1 82.9114 5.52351 -70.1606
364 1 86.1004 5.52351 -70.1606
366 1 89.2894 5.52351 -70.1606
368 1 92.4784 5.52351 -70.1606
370 1 95.6674 5.52351 -70.1606
372 1 98.8564 5.52351 -70.1606
374 1 102.045 5.52351 -70.1606
376 1 105.234 5.52351 -70.1606
378 1 108.423 5.52351 -70.1606
380 1 111.612 5.52351 -70.1606
382 1 114.801 5.52351 -70.1606
384 1 117.99 5.52351 -70.1606
386 1 121.179 5.52351 -70.1606
388 1 124.368 5.52351 -70.1606
390 1 127.557 5.52351 -70.1606
392 1 130.746 5.52351 -70.1606
394 1 133.935 5.52351 -70.1606
396 1 137.124 5.52351 -70.1606
398 1 140.313 5.52351 -70.1606
400 1 -68.5661 8.28527 -70.1606
402 1 -65.3771 8.28527 -70.1606
404 1 -62.1881 8.28527 -70.1606
406 1 -58.9991 8.28527 -70.1606
408 1 -55.8101 8.28527 -70.1606
410 1 -52.6211 8.28527 -70.1606
412 1 -49.4321 8.28527 -70.1606
414 1 -46.2431 8.28527 -70.1606
416 1 -43.0541 8.28527 -70.1606
418 1 -39.8651 8.28527 -70.1606
420 1 -36.6761 8.28527 -70.1606
422 1 -33.4871 8.28527 -70.1606
424 1 -30.2981 8.28527 -70.1606
426 1 -27.1091 8.28527 -70.1606
428 1 -23.9201 8.28527 -70.1606
430 1 -20.7311 8.28527 -70.1606
432 1 -17.5421 8.28527 -70.1606
434 1 -14.3531 8.28527 -70.1606
436 1 -11.1641 8.28527 -70.1606
438 1 -7.97511 8.28527 -70.1606
440 1 -4.78611 8.28527 -70.1606
442 1 -1.59711 8.28527 -70.1606
444 1 1.59189 8.28527 -70.1606
446 1 4.78089 8.28527 -70.1606
448 1 7.96989 8.28527 -70.1606
450 1 11.1589 8.28527 -70.1606
452 1 14.3479 8.28527 -70.1606
454 1 17.5369 8.28527 -70.1606
456 1 20.7259 8.28527 -70.1606
458 1 23.9149 8.28527 -70.1606
460 1 27.1039 8.28527 -70.1606
462 1 30.2929 8.28527 -70.1606
464 1 33.4819 8.28527 -70.1606
466 1 36.6709 8.28527 -70.1606
468 1 39.8599 8.28527 -70.1606
470 1 43.0489 8.28527 -70.1606
472 1 46.2379 8.28527 -70.1606
474 1 49.4269 8.28527 -70.1606
476 1 52.6159 8.28527 -70.1606
478 1 55.8049 8.28527 -70.1606
480 1 58.9939 8.28527 -70.1606
482 1 62.1829 8.28527 -70.1606
484 1 65.3719 8.28527 -70.1606
486 1 68.5609 8.28527 -70.1606
488 1 71.7499 8.28527 -70.1606
490 1 74.9389 8.28527 -70.1606
492 1 78.1279 8.28527 -70.1606
494 1 81.3169 8.28527 -70.1606
496 1 84.5059 8.28527 -70.1606
498 1 87.6949 8.28527 -70.1606
500 1 90.8839 8.28527 -70.1606
502 1 94.0729 8.28527 -70.1606
504 1 97.2619 8.28527 -70.1606
506 1 100.451 8.28527 -70.1606
508 1 103.64 8.28527 -70.1606
510 1 106.829 8.28527 -70.1606
512 1 110.018 8.28527 -70.1606
514 1 113.207 8.28527 -70.1606
516 1 116.396 8.28527 -70.1606
518 1 119.585 8.28527 -70.1606
520 1 122.774 8.28527 -70.1606
522 1 125.963 8.28527 -70.1606
524 1 129.152 8.28527 -70.1606
526 1 132.341 8.28527 -70.1606
528 1 135.53 8.28527 -70.1606
530 1 138.719 8.28527 -70.1606
531 1 -70.1606 11.047 -70.1606
533 1 -66.9716 11.047 -70.1606
535 1 -63.7826 11.047 -70.1606
537 1 -60.5936 11.047 -70.1606
539 1 -57.4046 11.047 -70.1606
541 1 -54.2156 11.047 -70.1606
543 1 -51.0266 11.047 -70.1606
545 1 -47.8376 11.047 -70.1606
547 1 -44.6486 11.047 -70.1606
549 1 -41.4596 11.047 -70.1606
551 1 -38.2706 11.047 -70.1606
553 1 -35.0816 11.047 -70.1606
555 1 -31.8926 11.047 -70.1606
557 1 -28.7036 11.047 -70.1606
559 1 -25.5146 11.047 -70.1606
561 1 -22.3256 11.047 -70.1606
563 1 -19.1366 11.047 -70.1606
565 1 -15.9476 11.047 -70.1606
567 1 -12.7586 11.047 -70.1606
569 1 -9.56961 11.047 -70.1606
571 1 -6.38061 11.047 -70.1606
573 1 -3.19161 11.047 -70.1606
575 1 -0.00261109 11.047 -70.1606
577 1 3.18639 11.047 -70.1606
579 1 6.37539 11.047 -70.1606
581 1 9.56439 11.047 -70.1606
583 1 12.7534 11.047 -70.1606
585 1 15.9424 11.047 -70.1606
587 1 19.1314 11.047 -70.1606
589 1 22.3204 11.047 -70.1606
591 1 25.5094 11.047 -70.1606
593 1 28.6984 11.047 -70.1606
595 1 31.8874 11.047 -70.1606
597 1 35.0764 11.047 -70.1606
599 1 38.2654 11.047 -70.1606
601 1 41.4544 11.047 -70.1606
603 1 44.6434 11.047 -70.1606
605 1 47.8324 11.047 -70.1606
607 1 51.0214 11.047 -70.1606
609 1 54.2104 11.047 -70.1606
611 1 57.3994 11.047 -70.1606
613 1 60.5884 11.047 -70.1606
615 1 63.7774 11.047 -70.1606
617 1 66.9664 11.047 -70.1606
619 1 70.1554 11.047 -70.1606
621 1 73.3444 11.047 -70.1606
623 1 76.5334 11.047 -70.1606
625 1 79.7224 11.047 -70.1606
627 1 82.9114 11.047 -70.1606
629 1 86.1004 11.047 -70.1606
631 1 89.2894 11.047 -70.1606
633 1 92.4784 11.047 -70.1606
635 1 95.6674 11.047 -70.1606
637 1 98.8564 11.047 -70.1606
639 1 102.045 11.047 -70.1606
641 1 105.234 11.047 -70.1606
643 1 108.423 11.047 -70.1606
645 1 111.612 11.047 -70.1606
647 1 114.801 11.047 -70.1606
649 1 117.99 11.047 -70.1606
651 1 121.179 11.047 -70.1606
653 1 124.368 11.047 -70.1606
655 1 127.557 11.047 -70.1606
657 1 130.746 11.047 -70.1606
659 1 133.935 11.047 -70.1606
661 1 137.124 11.047 -70.1606
663 1 140.313 11.047 -70.1606
665 1 -68.5661 13.8088 -70.1606
667 1 -65.3771 13.8088 -70.1606
669 1 -62.1881 13.8088 -70.1606
671 1 -58.9991 13.8088 -70.1606
673 1 -55.8101 13.8088 -70.1606
675 1 -52.6211 13.8088 -70.1606
677 1 -49.4321 13.8088 -70.1606
679 1 -46.2431 13.8088 -70.1606
681 1 -43.0541 13.8088 -70.1606
683 1 -39.8651 13.8088 -70.1606
685 1 -36.6761 13.8088 -70.1606
687 1 -33.4871 13.8088 -70.1606
689 1 -30.2981 13.8088 -70.1606
691 1 -27.1091 13.8088 -70.1606
693 1 -23.9201 13.8088 -70.1606
695 1 -20.7311 13.8088 -70.1606
697 1 -17.5421 13.8088 -70.1606
699 1 -14.3531 13.8088 -70.1606
701 1 -11.1641 13.8088 -70.1606
703 1 -7.97511 13.8088 -70.1606
705 1 -4.78611 13.8088 -70.1606
707 1 -1.59711 13.8088 -70.1606
709 1 1.59189 13.8088 -70.1606
711 1 4.78089 13.8088 -70.1606
713 1 7.96989 13.8088 -70.1606
715 1 11.1589 13.8088 -70.1606
717 1 14.3479 13.8088 -70.1606
719 1 17.5369 13.8088 -70.1606
721 1 20.7259 13.8088 -70.1606
723 1 23.9149 13.8088 -70.1606
725 1 27.1039 13.8088 -70.1606
727 1 30.2929 13.8088 -70.1606
729 1 33.4819 13.8088 -70.1606
731 1 36.6709 13.8088 -70.1606
733 1 39.8599 13.8088 -70.1606
735 1 43.0489 13.8088 -70.1606
737 1 46.2379 13.8088 -70.1606
739 1 49.4269 13.8088 -70.1606
741 1 52.6159 13.8088 -70.1606
743 1 55.8049 13.8088 -70.1606
745 1 58.9939 13.8088 -70.1606
747 1 62.1829 13.8088 -70.1606
749 1 65.3719 13.8088 -70.1606
751 1 68.5609 13.8088 -70.1606
753 1 71.7499 13.8088 -70.1606
755 1 74.9389 13.8088 -70.1606
757 1 78.1279 13.8088 -70.1606
759 1 81.3169 13.8088 -70.1606
761 1 84.5059 13.8088 -70.1606
763 1 87.6949 13.8088 -70.1606
765 1 90.8839 13.8088 -70.1606
767 1 94.0729 13.8088 -70.1606
769 1 97.2619 13.8088 -70.1606
771 1 100.451 13.8088 -70.1606
773 1 103.64 13.8088 -70.1606
775 1 106.829 13.8088 -70.1606
777 1 110.018 13.8088 -70.1606
779 1 113.207 13.8088 -70.1606
781 1 116.396 13.8088 -70.1606
783 1 119.585 13.8088 -70.1606
785 1 122.774 13.8088 -70.1606
787 1 125.963 13.8088 -70.1606
789 1 129.152 13.8088 -70.1606
791 1 132.341 13.8088 -70.1606
793 1 135.53 13.8088 -70.1606
795 1 138.719 13.8088 -70.1606
796 1 -70.1606 16.5705 -70.1606
798 1 -66.9716 16.5705 -70.1606
800 1 -63.7826 16.5705 -70.1606
802 1 -60.5936 16.5705 -70.1606
804 1 -57.4046 16.5705 -70.1606
806 1 -54.2156 16.5705 -70.1606
808 1 -51.0266 16.5705 -70.1606
810 1 -47.8376 16.5705 -70.1606
812 1 -44.6486 16.5705 -70.1606
814 1 -41.4596 16.5705 -70.1606
816 1 -38.2706 16.5705 -70.1606
818 1 -35.0816 16.5705 -70.1606
820 1 -31.8926 16.5705 -70.1606
822 1 -28.7036 16.5705 -70.1606
824 1 -25.5146 16.5705 -70.1606
826 1 -22.3256 16.5705 -70.1606
828 1 -19.1366 16.5705 -70.1606
830 1 -15.9476 16.5705 -70.1606
832 1 -12.7586 16.5705 -70.1606
834 1 -9.56961 16.5705 -70.1606
836 1 -6.38061 16.5705 -70.1606
838 1 -3.19161 16.5705 -70.1606
840 1 -0.00261109 16.5705 -70.1606
842 1 3.18639 16.5705 -70.1606
844 1 6.37539 16.5705 -70.1606
846 1 9.56439 16.5705 -70.1606
848 1 12.7534 16.5705 -70.1606
850 1 15.9424 16.5705 -70.1606
852 1 19.1314 16.5705 -70.1606
854 1 22.3204 16.5705 -70.1606
856 1 25.5094 16.5705 -70.1606
858 1 28.6984 16.5705 -70.1606
860 1 31.8874 16.5705 -70.1606
862 1 35.0764 16.5705 -70.1606
864 1 38.2654 16.5705 -70.1606
866 1 41.4544 16.5705 -70.1606
868 1 44.6434 16.5705 -70.1606
870 1 47.8324 16.5705 -70.1606
872 1 51.0214 16.5705 -70.1606
874 1 54.2104 16.5705 -70.1606
876 1 57.3994 16.5705 -70.1606
878 1 60.5884 16.5705 -70.1606
880 1 63.7774 16.5705 -70.1606
882 1 66.9664 16.5705 -70.1606
884 1 70.1554 16.5705 -70.1606
886 1 73.3444 16.5705 -70.1606
888 1 76.5334 16.5705 -70.1606
890 1 79.7224 16.5705 -70.1606
892 1 82.9114 16.5705 -70.1606
894 1 86.1004 16.5705 -70.1606
896 1 89.2894 16.5705 -70.1606
898 1 92.4784 16.5705 -70.1606
900 1 95.6674 16.5705 -70.1606
902 1 98.8564 16.5705 -70.1606
904 1 102.045 16.5705 -70.1606
906 1 105.234 16.5705 -70.1606
908 1 108.423 16.5705 -70.1606
910 1 111.612 16.5705 -70.1606
912 1 114.801 16.5705 -70.1606
914 1 117.99 16.5705 -70.1606
916 1 121.179 16.5705 -70.1606
918 1 124.368 16.5705 -70.1606
920 1 127.557 16.5705 -70.1606
922 1 130.746 16.5705 -70.1606
924 1 133.935 16.5705 -70.1606
926 1 137.124 16.5705 -70.1606
928 1 140.313 16.5705 -70.1606
930 1 -68.5661 19.3323 -70.1606
932 1 -65.3771 19.3323 -70.1606
934 1 -62.1881 19.3323 -70.1606
936 1 -58.9991 19.3323 -70.1606
938 1 -55.8101 19.3323 -70.1606
940 1 -52.6211 19.3323 -70.1606
942 1 -49.4321 19.3323 -70.1606
944 1 -46.2431 19.3323 -70.1606
946 1 -43.0541 19.3323 -70.1606
948 1 -39.8651 19.3323 -70.1606
950 1 -36.6761 19.3323 -70.1606
952 1 -33.4871 19.3323 -70.1606
954 1 -30.2981 19.3323 -70.1606
956 1 -27.1091 19.3323 -70.1606
958 1 -23.9201 19.3323 -70.1606
960 1 -20.7311 19.3323 -70.1606
962 1 -17.5421 19.3323 -70.1606
964 1 -14.3531 19.3323 -70.1606
966 1 -11.1641 19.3323 -70.1606
968 1 -7.97511 19.3323 -70.1606
970 1 -4.78611 19.3323 -70.1606
972 1 -1.59711 19.3323 -70.1606
974 1 1.59189 19.3323 -70.1606
976 1 4.78089 19.3323 -70.1606
978 1 7.96989 19.3323 -70.1606
980 1 11.1589 19.3323 -70.1606
982 1 14.3479 19.3323 -70.1606
984 1 17.5369 19.3323 -70.1606
986 1 20.7259 19.3323 -70.1606
988 1 23.9149 19.3323 -70.1606
990 1 27.1039 19.3323 -70.1606
992 1 30.2929 19.3323 -70.1606
994 1 33.4819 19.3323 -70.1606
996 1 36.6709 19.3323 -70.1606
998 1 39.8599 19.3323 -70.1606
1000 1 43.0489 19.3323 -70.1606
1002 1 46.2379 19.3323 -70.1606
1004 1 49.4269 19.3323 -70.1606
1006 1 52.6159 19.3323 -70.1606
1008 1 55.8049 19.3323 -70.1606
1010 1 58.9939 19.3323 -70.1606
1012 1 62.1829 19.3323 -70.1606
1014 1 65.3719 19.3323 -70.1606
1016 1 68.5609 19.3323 -70.1606
1018 1 71.7499 19.3323 -70.1606
1020 1 74.9389 19.3323 -70.1606
1022 1 78.1279 19.3323 -70.1606
1024 1 81.3169 19.3323 -70.1606
1026 1 84.5059 19.3323 -70.1606
1028 1 87.6949 19.3323 -70.1606
1030 1 90.8839 19.3323 -70.1606
1032 1 94.0729 19.3323 -70.1606
1034 1 97.2619 19.3323 -70.1606
1036 1 100.451 19.3323 -70.1606
1038 1 103.64 19.3323 -70.1606
1040 1 106.829 19.3323 -70.1606
1042 1 110.018 19.3323 -70.1606
1044 1 113.207 19.3323 -70.1606
1046 1 116.396 19.3323 -70.1606
1048 1 119.585 19.3323 -70.1606
1050 1 122.774 19.3323 -70.1606
1052 1 125.963 19.3323 -70.1606
1054 1 129.152 19.3323 -70.1606
1056 1 132.341 19.3323 -70.1606
1058 1 135.53 19.3323 -70.1606
1060 1 138.719 19.3323 -70.1606
1061 1 -70.1606 22.094 -70.1606
1063 1 -66.9716 22.094 -70.1606
1065 1 -63.7826 22.094 -70.1606
1067 1 -60.5936 22.094 -70.1606
1069 1 -57.4046 22.094 -70.1606
1071 1 -54.2156 22.094 -70.1606
1073 1 -51.0266 22.094 -70.1606
1075 1 -47.8376 22.094 -70.1606
1077 1 -44.6486 22.094 -70.1606
1079 1 -41.4596 22.094 -70.1606
1081 1 -38.2706 22.094 -70.1606
1083 1 -35.0816 22.094 -70.1606
1085 1 -31.8926 22.094 -70.1606
1087 1 -28.7036 22.094 -70.1606
1089 1 -25.5146 22.094 -70.1606
1091 1 -22.3256 22.094 -70.1606
1093 1 -19.1366 22.094 -70.1606
1095 1 -15.9476 22.094 -70.1606
1097 1 -12.7586 22.094 -70.1606
1099 1 -9.56961 22.094 -70.1606
1101 1 -6.38061 22.094 -70.1606
1103 1 -3.19161 22.094 -70.1606
1105 1 -0.00261109 22.094 -70.1606
1107 1 3.18639 22.094 -70.1606
1109 1 6.37539 22.094 -70.1606
1111 1 9.56439 22.094 -70.1606
1113 1 12.7534 22.094 -70.1606
1115 1 15.9424 22.094 -70.1606
1117 1 19.1314 22.094 -70.1606
1119 1 22.3204 22.094 -70.1606
1121 1 25.5094 22.094 -70.1606
1123 1 28.6984 22.094 -70.1606
1125 1 31.8874 22.094 -70.1606
1127 1 35.0764 22.094 -70.1606
1129 1 38.2654 22.094 -70.1606
1131 1 41.4544 22.094 -70.1606
1133 1 44.6434 22.094 -70.1606
1135 1 47.8324 22.094 -70.1606
1137 1 51.0214 22.094 -70.1606
1139 1 54.2104 22.094 -70.1606
1141 1 57.3994 22.094 -70.1606
1143 1 60.5884 22.094 -70.1606
1145 1 63.7774 22.094 -70.1606
1147 1 66.9664 22.094 -70.1606
1149 1 70.1554 22.094 -70.1606
1151 1 73.3444 22.094 -70.1606
1153 1 76.5334 22.094 -70.1606
1155 1 79.7224 22.094 -70.1606
1157 1 82.9114 22.094 -70.1606
1159 1 86.1004 22.094 -70.1606
1161 1 89.2894 22.094 -70.1606
1163 1 92.4784 22.094 -70.1606
1165 1 95.6674 22.094 -70.1606
1167 1 98.8564 22.094 -70.1606
1169 1 102.045 22.094 -70.1606
1171 1 105.234 22.094 -70.1606
1173 1 108.423 22.094 -70.1606
1175 1 111.612 22.094 -70.1606
1177 1 114.801 22.094 -70.1606
1179 1 117.99 22.094 -70.1606
1181 1 121.179 22.094 -70.1606
1183 1 124.368 22.094 -70.1606
1185 1 127.557 22.094 -70.1606
1187 1 130.746 22.094 -70.1606
1189 1 133.935 22.094 -70.1606
1191 1 137.124 22.094 -70.1606
1193 1 140.313 22.094 -70.1606
1195 1 -68.5661 24.8558 -70.1606
1197 1 -65.3771 24.8558 -70.1606
1199 1 -62.1881 24.8558 -70.1606
1201 1 -58.9991 24.8558 -70.1606
1203 1 -55.8101 24.8558 -70.1606
1205 1 -52.6211 24.8558 -70.1606
1207 1 -49.4321 24.8558 -70.1606
1209 1 -46.2431 24.8558 -70.1606
1211 1 -43.0541 24.8558 -70.1606
1213 1 -39.8651 24.8558 -70.1606
1215 1 -36.6761 24.8558 -70.1606
1217 1 -33.4871 24.8558 -70.1606
1219 1 -30.2981 24.8558 -70.1606
1221 1 -27.1091 24.8558 -70.1606
1223 1 -23.9201 24.8558 -70.1606
1225 1 -20.7311 24.8558 -70.1606
1227 1 -17.5421 24.8558 -70.1606
1229 1 -14.3531 24.8558 -70.1606
1231 1 -11.1641 24.8558 -70.1606
1233 1 -7.97511 24.8558 -70.1606
1235 1 -4.78611 24.8558 -70.1606
1237 1 -1.59711 24.8558 -70.1606
1239 1 1.59189 24.8558 -70.1606
1241 1 4.78089 24.8558 -70.1606
1243 1 7.96989 24.8558 -70.1606
1245 1 11.1589 24.8558 -70.1606
1247 1 14.3479 24.8558 -70.1606
1249 1 17.5369 24.8558 -70.1606
1251 1 20.7259 24.8558 -70.1606
1253 1 23.9149 24.8558 -70.1606
1255 1 27.1039 24.8558 -70.1606
1257 1 30.2929 24.8558 -70.1606
1259 1 33.4819 24.8558 -70.1606
1261 1 36.6709 24.8558 -70.1606
1263 1 39.8599 24.8558 -70.1606
1265 1 43.0489 24.8558 -70.1606
1267 1 46.2379 24.8558 -70.1606
1269 1 49.4269 24.8558 -70.1606
1271 1 52.6159 24.8558 -70.1606
1273 1 55.8049 24.8558 -70.1606
1275 1 58.9939 24.8558 -70.1606
1277 1 62.1829 24.8558 -70.1606
1279 1 65.3719 24.8558 -70.1606
1281 1 68.5609 24.8558 -70.1606
1283 1 71.7499 24.8558 -70.1606
1285 1 74.9389 24.8558 -70.1606
1287 1 78.1279 24.8558 -70.1606
1289 1 81.3169 24.8558 -70.1606
1291 1 84.5059 24.8558 -70.1606
1293 1 87.6949 24.8558 -70.1606
1295 1 90.8839 24.8558 -70.1606
1297 1 94.0729 24.8558 -70.1606
1299 1 97.2619 24.8558 -70.1606
1301 1 100.451 24.8558 -70.1606
1303 1 103.64 24.8558 -70.1606
1305 1 106.829 24.8558 -70.1606
1307 1 110.018 24.8558 -70.1606
1309 1 113.207 24.8558 -70.1606
1311 1 116.396 24.8558 -70.1606
1313 1 119.585 24.8558 -70.1606
1315 1 122.774 24.8558 -70.1606
1317 1 125.963 24.8558 -70.1606
1319 1 129.152 24.8558 -70.1606
1321 1 132.341 24.8558 -70.1606
1323 1 135.53 24.8558 -70.1606
1325 1 138.719 24.8558 -70.1606
1326 1 -70.1606 27.6176 -70.1606
1328 1 -66.9716 27.6176 -70.1606
1330 1 -63.7826 27.6176 -70.1606
1332 1 -60.5936 27.6176 -70.1606
1334 1 -57.4046 27.6176 -70.1606
1336 1 -54.2156 27.6176 -70.1606
1338 1 -51.0266 27.6176 -70.1606
1340 1 -47.8376 27.6176 -70.1606
1342 1 -44.6486 27.6176 -70.1606
1344 1 -41.4596 27.6176 -70.1606
1346 1 -38.2706 27.6176 -70.1606
1348 1 -35.0816 27.6176 -70.1606
1350 1 -31.8926 27.6176 -70.1606
1352 1 -28.7036 27.6176 -70.1606
1354 1 -25.5146 27.6176 -70.1606
1356 1 -22.3256 27.6176 -70.1606
1358 1 -19.1366 27.6176 -70.1606
1360 1 -15.9476 27.6176 -70.1606
1362 1 -12.7586 27.6176 -70.1606
1364 1 -9.56961 27.6176 -70.1606
1366 1 -6.38061 27.6176 -70.1606
1368 1 -3.19161 27.6176 -70.1606
1370 1 -0.00261109 27.6176 -70.1606
1372 1 3.18639 27.6176 -70.1606
1374 1 6.37539 27.6176 -70.1606
1376 1 9.56439 27.6176 -70.1606
1378 1 12.7534 27.6176 -70.1606
1380 1 15.9424 27.6176 -70.1606
1382 1 19.1314 27.6176 -70.1606
1384 1 22.3204 27.6176 -70.1606
1386 1 25.5094 27.6176 -70.1606
1388 1 28.6984 27.6176 -70.1606
1390 1 31.8874 27.6176 -70.1606
1392 1 35.0764 27.6176 -70.1606
1394 1 38.2654 27.6176 -70.1606
1396 1 41.4544 27.6176 -70.1606
1398 1 44.6434 27.6176 -70.1606
1400 1 47.8324 27.6176 -70.1606
1402 1 51.0214 27.6176 -70.1606
1404 1 54.2104 27.6176 -70.1606
1406 1 57.3994 27.6176 -70.1606
1408 1 60.5884 27.6176 -70.1606
1410 1 63.7774 27.6176 -70.1606
1412 1 66.9664 27.6176 -70.1606
1414 1 70.1554 27.6176 -70.1606
1416 1 73.3444 27.6176 -70.1606
1418 1 76.5334 27.6176 -70.1606
1420 1 79.7224 27.6176 -70.1606
1422 1 82.9114 27.6176 -70.1606
1424 1 86.1004 27.6176 -70.1606
1426 1 89.2894 27.6176 -70.1606
1428 1 92.4784 27.6176 -70.1606
1430 1 95.6674 27.6176 -70.1606
1432 1 98.8564 27.6176 -70.1606
1434 1 102.045 27.6176 -70.1606
1436 1 105.234 27.6176 -70.1606
1438 1 108.423 27.6176 -70.1606
1440 1 111.612 27.6176 -70.1606
1442 1 114.801 27.6176 -70.1606
1444 1 117.99 27.6176 -70.1606
1446 1 121.179 27.6176 -70.1606
1448 1 124.368 27.6176 -70.1606
1450 1 127.557 27.6176 -70.1606
1452 1 130.746 27.6176 -70.1606
1454 1 133.935 27.6176 -70.1606
1456 1 137.124 27.6176 -70.1606
1458 1 140.313 27.6176 -70.1606
1460 1 -68.5661 30.3793 -70.1606
1462 1 -65.3771 30.3793 -70.1606
1464 1 -62.1881 30.3793 -70.1606
1466 1 -58.9991 30.3793 -70.1606
1468 1 -55.8101 30.3793 -70.1606
1470 1 -52.6211 30.3793 -70.1606
1472 1 -49.4321 30.3793 -70.1606
1474 1 -46.2431 30.3793 -70.1606
1476 1 -43.0541 30.3793 -70.1606
1478 1 -39.8651 30.3793 -70.1606
1480 1 -36.6761 30.3793 -70.1606
1482 1 -33.4871 30.3793 -70.1606
1484 1 -30.2981 30.3793 -70.1606
1486 1 -27.1091 30.3793 -70.1606
1488 1 -23.9201 30.3793 -70.1606
1490 1 -20.7311 30.3793 -70.1606
1492 1 -17.5421 30.3793 -70.1606
1494 1 -14.3531 30.3793 -70.1606
1496 1 -11.1641 30.3793 -70.1606
1498 1 -7.97511 30.3793 -70.1606
1500 1 -4.78611 30.3793 -70.1606
1502 1 -1.59711 30.3793 -70.1606
1504 1 1.59189 30.3793 -70.1606
1506 1 4.78089 30.3793 -70.1606
1508 1 7.96989 30.3793 -70.1606
1510 1 11.1589 30.3793 -70.1606
1512 1 14.3479 30.3793 -70.1606
1514 1 17.5369 30.3793 -70.1606
1516 1 20.7259 30.3793 -70.1606
1518 1 23.9149 30.3793 -70.1606
1520 1 27.1039 30.3793 -70.1606
1522 1 30.2929 30.3793 -70.1606
1524 1 33.4819 30.3793 -70.1606
1526 1 36.6709 30.3793 -70.1606
1528 1 39.8599 30.3793 -70.1606
1530 1 43.0489 30.3793 -70.1606
1532 1 46.2379 30.3793 -70.1606
1534 1 49.4269 30.3793 -70.1606
1536 1 52.6159 30.3793 -70.1606
1538 1 55.8049 30.3793 -70.1606
1540 1 58.9939 30.3793 -70.1606
1542 1 62.1829 30.3793 -70.1606
1544 1 65.3719 30.3793 -70.1606
1546 1 68.5609 30.3793 -70.1606
1548 1 71.7499 30.3793 -70.1606
1550 1 74.9389 30.3793 -70.1606
1552 1 78.1279 30.3793 -70.1606
1554 1 81.3169 30.3793 -70.1606
1556 1 84.5059 30.3793 -70.1606
1558 1 87.6949 30.3793 -70.1606
1560 1 90.8839 30.3793 -70.1606
1562 1 94.0729 30.3793 -70.1606
1564 1 97.2619 30.3793 -70.1606
1566 1 100.451 30.3793 -70.1606
1568 1 103.64 30.3793 -70.1606
1570 1 106.829 30.3793 -70.1606
1572 1 110.018 30.3793 -70.1606
1574 1 113.207 30.3793 -70.1606
1576 1 116.396 30.3793 -70.1606
1578 1 119.585 30.3793 -70.1606
1580 1 122.774 30.3793 -70.1606
1582 1 125.963 30.3793 -70.1606
1584 1 129.152 30.3793 -70.1606
1586 1 132.341 30.3793 -70.1606
1588 1 135.53 30.3793 -70.1606
1590 1 138.719 30.3793 -70.1606
1591 1 -70.1606 33.1411 -70.1606
1592 1 -66.9716 33.1411 -70.1606
1593 1 -63.7826 33.1411 -70.1606
1594 1 -60.5936 33.1411 -70.1606
1595 1 -57.4046 33.1411 -70.1606
1596 1 -54.2156 33.1411 -70.1606
1597 1 -51.0266 33.1411 -70.1606
1598 1 -47.8376 33.1411 -70.1606
1599 1 -44.6486 33.1411 -70.1606
1600 1 -41.4596 33.1411 -70.1606
1601 1 -38.2706 33.1411 -70.1606
1602 1 -35.0816 33.1411 -70.1606
1603 1 -31.8926 33.1411 -70.1606
1604 1 -28.7036 33.1411 -70.1606
1605 1 -25.5146 33.1411 -70.1606
1606 1 -22.3256 33.1411 -70.1606
1607 1 -19.1366 33.1411 -70.1606
1608 1 -15.9476 33.1411 -70.1606
1609 1 -12.7586 33.1411 -70.1606
1610 1 -9.56961 33.1411 -70.1606
1611 1 -6.38061 33.1411 -70.1606
1612 1 -3.19161 33.1411 -70.1606
1613 1 -0.00261109 33.1411 -70.1606
1614 1 3.18639 33.1411 -70.1606
1615 1 6.37539 33.1411 -70.1606
1616 1 9.56439 33.1411 -70.1606
1617 1 12.7534 33.1411 -70.1606
1618 1 15.9424 33.1411 -70.1606
1619 1 19.1314 33.1411 -70.1606
1620 1 22.3204 33.1411 -70.1606
1621 1 25.5094 33.1411 -70.1606
1622 1 28.6984 33.1411 -70.1606
1623 1 31.8874 33.1411 -70.1606
1624 1 35.0764 33.1411 -70.1606
1625 1 38.2654 33.1411 -70.1606
1626 1 41.4544 33.1411 -70.1606
1627 1 44.6434 33.1411 -70.1606
1628 1 47.8324 33.1411 -70.1606
1629 1 51.0214 33.1411 -70.1606
1630 1 54.2104 33.1411 -70.1606
1631 1 57.3994 33.1411 -70.1606
1632 1 60.5884 33.1411 -70.1606
1633 1 63.7774 33.1411 -70.1606
1634 1 66.9664 33.1411 -70.1606
1635 1 70.1554 33.1411 -70.1606
1636 1 73.3444 33.1411 -70.1606
1637 1 76.5334 33.1411 -70.1606
1638 1 79.7224 33.1411 -70.1606
1639 1 82.9114 33.1411 -70.1606
1640 1 86.1004 33.1411 -70.1606
1641 1 89.2894 33.1411 -70.1606
1642 1 92.4784 33.1411 -70.1606
1643 1 95.6674 33.1411 -70.1606
1644 1 98.8564 33.1411 -70.1606
1645 1 102.045 33.1411 -70.1606
1646 1 105.234 33.1411 -70.1606
1647 1 108.423 33.1411 -70.1606
1648 1 111.612 33.1411 -70.1606
1649 1 114.801 33.1411 -70.1606
1650 1 117.99 33.1411 -70.1606
1651 1 121.179 33.1411 -70.1606
1652 1 124.368 33.1411 -70.1606
1653 1 127.557 33.1411 -70.1606
1654 1 130.746 33.1411 -70.1606
1655 1 133.935 33.1411 -70.1606
1656 1 137.124 33.1411 -70.1606
1657 1 140.313 33.1411 -70.1606
2 1 -68.5981 1.01668 -61.8759
4 1 -65.4091 1.01668 -61.8759
6 1 -62.2201 1.01668 -61.8759
8 1 -59.0311 1.01668 -61.8759
10 1 -55.8421 1.01668 -61.8759
12 1 -52.6531 1.01668 -61.8759
14 1 -49.4641 1.01668 -61.8759
16 1 -46.2751 1.01668 -61.8759
18 1 -43.0861 1.01668 -61.8759
20 1 -39.8971 1.01668 -61.8759
22 1 -36.7081 1.01668 -61.8759
24 1 -33.5191 1.01668 -61.8759
26 1 -30.3301 1.01668 -61.8759
28 1 -27.1411 1.01668 -61.8759
30 1 -23.9521 1.01668 -61.8759
32 1 -20.7631 1.01668 -61.8759
34 1 -17.5741 1.01668 -61.8759
36 1 -14.3851 1.01668 -61.8759
38 1 -11.1961 1.01668 -61.8759
40 1 -8.0071 1.01668 -61.8759
42 1 -4.8181 1.01668 -61.8759
44 1 -1.6291 1.01668 -61.8759
46 1 1.5599 1.01668 -61.8759
48 1 4.7489 1.01668 -61.8759
50 1 7.9379 1.01668 -61.8759
52 1 11.1269 1.01668 -61.8759
54 1 14.3159 1.01668 -61.8759
56 1 17.5049 1.01668 -61.8759
58 1 20.6939 1.01668 -61.8759
60 1 23.8829 1.01668 -61.8759
62 1 27.0719 1.01668 -61.8759
64 1 30.2609 1.01668 -61.8759
66 1 33.4499 1.01668 -61.8759
68 1 36.6389 1.01668 -61.8759
70 1 39.8279 1.01668 -61.8759
72 1 43.0169 1.01668 -61.8759
74 1 46.2059 1.01668 -61.8759
76 1 49.3949 1.01668 -61.8759
78 1 52.5839 1.01668 -61.8759
80 1 55.7729 1.01668 -61.8759
82 1 58.9619 1.01668 -61.8759
84 1 62.1509 1.01668 -61.8759
86 1 65.3399 1.01668 -61.8759
88 1 68.5289 1.01668 -61.8759
90 1 71.7179 1.01668 -61.8759
92 1 74.9069 1.01668 -61.8759
94 1 78.0959 1.01668 -61.8759
96 1 81.2849 1.01668 -61.8759
98 1 84.4739 1.01668 -61.8759
100 1 87.6629 1.01668 -61.8759
102 1 90.8519 1.01668 -61.8759
104 1 94.0409 1.01668 -61.8759
106 1 97.2299 1.01668 -61.8759
108 1 100.419 1.01668 -61.8759
110 1 103.608 1.01668 -61.8759
112 1 106.797 1.01668 -61.8759
114 1 109.986 1.01668 -61.8759
116 1 113.175 1.01668 -61.8759
118 1 116.364 1.01668 -61.8759
120 1 119.553 1.01668 -61.8759
122 1 122.742 1.01668 -61.8759
124 1 125.931 1.01668 -61.8759
126 1 129.12 1.01668 -61.8759
128 1 132.309 1.01668 -61.8759
130 1 135.498 1.01668 -61.8759
132 1 138.687 1.01668 -61.8759
134 1 -70.1605 3.68225 -61.8931
136 1 -67.0036 3.77843 -61.8759
138 1 -63.8146 3.77843 -61.8759
140 1 -60.6256 3.77843 -61.8759
142 1 -57.4366 3.77843 -61.8759
144 1 -54.2476 3.77843 -61.8759
146 1 -51.0586 3.77843 -61.8759
148 1 -47.8696 3.77843 -61.8759
150 1 -44.6806 3.77843 -61.8759
152 1 -41.4916 3.77843 -61.8759
154 1 -38.3026 3.77843 -61.8759
156 1 -35.1136 3.77843 -61.8759
158 1 -31.9246 3.77843 -61.8759
160 1 -28.7356 3.77843 -61.8759
162 1 -25.5466 3.77843 -61.8759
164 1 -22.3576 3.77843 -61.8759
166 1 -19.1686 3.77843 -61.8759
168 1 -15.9796 3.77843 -61.8759
170 1 -12.7906 3.77843 -61.8759
172 1 -9.6016 3.77843 -61.8759
174 1 -6.4126 3.77843 -61.8759
176 1 -3.2236 3.77843 -61.8759
178 1 -0.034605 3.77843 -61.8759
180 1 3.1544 3.77843 -61.8759
182 1 6.3434 3.77843 -61.8759
184 1 9.5324 3.77843 -61.8759
186 1 12.7214 3.77843 -61.8759