ITEM: TIMESTEP
19000
ITEM: NUMBER OF ATOMS
14121
ITEM: BOX BOUNDS ss ss ss
-8.2964346498557262e+01 6.2336399924628574e+02
-1.0231754111503553e+00 6.2198076407673007e+01
-8.2949910197874459e+01 4.7686311774333228e+02
ITEM: ATOMS id type x y z
1 1 -82.9625 0 -82.9625
3 1 -79.7735 0 -82.9625
5 1 -76.5845 0 -82.9625
7 1 -73.3955 0 -82.9625
9 1 -70.2065 0 -82.9625
11 1 -67.0175 0 -82.9625
13 1 -63.8285 0 -82.9625
15 1 -60.6395 0 -82.9625
17 1 -57.4505 0 -82.9625
19 1 -54.2615 0 -82.9625
21 1 -51.0725 0 -82.9625
23 1 -47.8835 0 -82.9625
25 1 -44.6945 0 -82.9625
27 1 -41.5055 0 -82.9625
29 1 -38.3165 0 -82.9625
31 1 -35.1275 0 -82.9625
33 1 -31.9385 0 -82.9625
35 1 -28.7495 0 -82.9625
37 1 -25.5605 0 -82.9625
39 1 -22.3715 0 -82.9625
41 1 -19.1825 0 -82.9625
43 1 -15.9935 0 -82.9625
45 1 -12.8045 0 -82.9625
47 1 -9.6155 0 -82.9625
49 1 -6.4265 0 -82.9625
51 1 -3.2375 0 -82.9625
53 1 -0.0484977 0 -82.9625
55 1 3.1405 0 -82.9625
57 1 6.3295 0 -82.9625
59 1 9.5185 0 -82.9625
61 1 12.7075 0 -82.9625
63 1 15.8965 0 -82.9625
65 1 19.0855 0 -82.9625
67 1 22.2745 0 -82.9625
69 1 25.4635 0 -82.9625
71 1 28.6525 0 -82.9625
73 1 31.8415 0 -82.9625
75 1 35.0305 0 -82.9625
77 1 38.2195 0 -82.9625
79 1 41.4085 0 -82.9625
81 1 44.5975 0 -82.9625
83 1 47.7865 0 -82.9625
85 1 50.9755 0 -82.9625
87 1 54.1645 0 -82.9625
89 1 57.3535 0 -82.9625
91 1 60.5425 0 -82.9625
93 1 63.7315 0 -82.9625
95 1 66.9205 0 -82.9625
97 1 70.1095 0 -82.9625
99 1 73.2985 0 -82.9625
101 1 76.4875 0 -82.9625
103 1 79.6765 0 -82.9625
105 1 82.8655 0 -82.9625
107 1 86.0545 0 -82.9625
109 1 89.2435 0 -82.9625
111 1 92.4325 0 -82.9625
113 1 95.6215 0 -82.9625
115 1 98.8105 0 -82.9625
117 1 102 0 -82.9625
119 1 105.189 0 -82.9625
121 1 108.378 0 -82.9625
123 1 111.567 0 -82.9625
125 1 114.756 0 -82.9625
127 1 117.945 0 -82.9625
129 1 121.134 0 -82.9625
131 1 124.323 0 -82.9625
133 1 127.512 0 -82.9625
135 1 -81.368 2.76176 -82.9625
137 1 -78.179 2.76176 -82.9625
139 1 -74.99 2.76176 -82.9625
141 1 -71.801 2.76176 -82.9625
143 1 -68.612 2.76176 -82.9625
145 1 -65.423 2.76176 -82.9625
147 1 -62.234 2.76176 -82.9625
149 1 -59.045 2.76176 -82.9625
151 1 -55.856 2.76176 -82.9625
153 1 -52.667 2.76176 -82.9625
155 1 -49.478 2.76176 -82.9625
157 1 -46.289 2.76176 -82.9625
159 1 -43.1 2.76176 -82.9625
161 1 -39.911 2.76176 -82.9625
163 1 -36.722 2.76176 -82.9625
165 1 -33.533 2.76176 -82.9625
167 1 -30.344 2.76176 -82.9625
169 1 -27.155 2.76176 -82.9625
171 1 -23.966 2.76176 -82.9625
173 1 -20.777 2.76176 -82.9625
175 1 -17.588 2.76176 -82.9625
177 1 -14.399 2.76176 -82.9625
179 1 -11.21 2.76176 -82.9625
181 1 -8.021 2.76176 -82.9625
183 1 -4.832 2.76176 -82.9625
185 1 -1.643 2.76176 -82.9625
187 1 1.546 2.76176 -82.9625
189 1 4.735 2.76176 -82.9625
191 1 7.924 2.76176 -82.9625
193 1 11.113 2.76176 -82.9625
195 1 14.302 2.76176 -82.9625
197 1 17.491 2.76176 -82.9625
199 1 20.68 2.76176 -82.9625
201 1 23.869 2.76176 -82.9625
203 1 27.058 2.76176 -82.9625
205 1 30.247 2.76176 -82.9625
207 1 33.436 2.76176 -82.9625
209 1 36.625 2.76176 -82.9625
211 1 39.814 2.76176 -82.9625
213 1 43.003 2.76176 -82.9625
215 1 46.192 2.76176 -82.9625
217 1 49.381 2.76176 -82.9625
219 1 52.57 2.76176 -82.9625
221 1 55.759 2.76176 -82.9625
223 1 58.948 2.76176 -82.9625
225 1 62.137 2.76176 -82.9625
227 1 65.326 2.76176 -82.9625
229 1 68.515 2.76176 -82.9625
231 1 71.704 2.76176 -82.9625
233 1 74.893 2.76176 -82.9625
235 1 78.082 2.76176 -82.9625
237 1 81.271 2.76176 -82.9625
239 1 84.46 2.76176 -82.9625
241 1 87.649 2.76176 -82.9625
243 1 90.838 2.76176 -82.9625
245 1 94.027 2.76176 -82.9625
247 1 97.216 2.76176 -82.9625
249 1 100.405 2.76176 -82.9625
251 1 103.594 2.76176 -82.9625
253 1 106.783 2.76176 -82.9625
255 1 109.972 2.76176 -82.9625
257 1 113.161 2.76176 -82.9625
259 1 116.35 2.76176 -82.9625
261 1 119.539 2.76176 -82.9625
263 1 122.728 2.76176 -82.9625
265 1 125.917 2.76176 -82.9625
266 1 -82.9625 5.52351 -82.9625
268 1 -79.7735 5.52351 -82.9625
270 1 -76.5845 5.52351 -82.9625
272 1 -73.3955 5.52351 -82.9625
274 1 -70.2065 5.52351 -82.9625
276 1 -67.0175 5.52351 -82.9625
278 1 -63.8285 5.52351 -82.9625
280 1 -60.6395 5.52351 -82.9625
282 1 -57.4505 5.52351 -82.9625
284 1 -54.2615 5.52351 -82.9625
286 1 -51.0725 5.52351 -82.9625
288 1 -47.8835 5.52351 -82.9625
290 1 -44.6945 5.52351 -82.9625
292 1 -41.5055 5.52351 -82.9625
294 1 -38.3165 5.52351 -82.9625
296 1 -35.1275 5.52351 -82.9625
298 1 -31.9385 5.52351 -82.9625
300 1 -28.7495 5.52351 -82.9625
302 1 -25.5605 5.52351 -82.9625
304 1 -22.3715 5.52351 -82.9625
306 1 -19.1825 5.52351 -82.9625
308 1 -15.9935 5.52351 -82.9625
310 1 -12.8045 5.52351 -82.9625
312 1 -9.6155 5.52351 -82.9625
314 1 -6.4265 5.52351 -82.9625
316 1 -3.2375 5.52351 -82.9625
318 1 -0.0484977 5.52351 -82.9625
320 1 3.1405 5.52351 -82.9625
322 1 6.3295 5.52351 -82.9625
324 1 9.5185 5.52351 -82.9625
326 1 12.7075 5.52351 -82.9625
328 1 15.8965 5.52351 -82.9625
330 1 19.0855 5.52351 -82.9625
332 1 22.2745 5.52351 -82.9625
334 1 25.4635 5.52351 -82.9625
336 1 28.6525 5.52351 -82.9625
338 1 31.8415 5.52351 -82.9625
340 1 35.0305 5.52351 -82.9625
342 1 38.2195 5.52351 -82.9625
344 1 41.4085 5.52351 -82.9625
346 1 44.5975 5.52351 -82.9625
348 1 47.7865 5.52351 -82.9625
350 1 50.9755 5.52351 -82.9625
352 1 54.1645 5.52351 -82.9625
354 1 57.3535 5.52351 -82.9625
356 1 60.5425 5.52351 -82.9625
358 1 63.7315 5.52351 -82.9625
360 1 66.9205 5.52351 -82.9625
362 1 70.1095 5.52351 -82.9625
364 1 73.2985 5.52351 -82.9625
366 1 76.4875 5.52351 -82.9625
368 1 79.6765 5.52351 -82.9625
370 1 82.8655 5.52351 -82.9625
372 1 86.0545 5.52351 -82.9625
374 1 89.2435 5.52351 -82.9625
376 1 92.4325 5.52351 -82.9625
378 1 95.6215 5.52351 -82.9625
380 1 98.8105 5.52351 -82.9625
382 1 102 5.52351 -82.9625
384 1 105.189 5.52351 -82.9625
386 1 108.378 5.52351 -82.9625
388 1 111.567 5.52351 -82.9625
390 1 114.756 5.52351 -82.9625
392 1 117.945 5.52351 -82.9625
394 1 121.134 5.52351 -82.9625
396 1 124.323 5.52351 -82.9625
398 1 127.512 5.52351 -82.9625
400 1 -81.368 8.28527 -82.9625
402 1 -78.179 8.28527 -82.9625
404 1 -74.99 8.28527 -82.9625
406 1 -71.801 8.28527 -82.9625
408 1 -68.612 8.28527 -82.9625
410 1 -65.423 8.28527 -82.9625
412 1 -62.234 8.28527 -82.9625
414 1 -59.045 8.28527 -82.9625
416 1 -55.856 8.28527 -82.9625
418 1 -52.667 8.28527 -82.9625
420 1 -49.478 8.28527 -82.9625
422 1 -46.289 8.28527 -82.9625
424 1 -43.1 8.28527 -82.9625
426 1 -39.911 8.28527 -82.9625
428 1 -36.722 8.28527 -82.9625
430 1 -33.533 8.28527 -82.9625
432 1 -30.344 8.28527 -82.9625
434 1 -27.155 8.28527 -82.9625
436 1 -23.966 8.28527 -82.9625
438 1 -20.777 8.28527 -82.9625
440 1 -17.588 8.28527 -82.9625
442 1 -14.399 8.28527 -82.9625
444 1 -11.21 8.28527 -82.9625
446 1 -8.021 8.28527 -82.9625
448 1 -4.832 8.28527 -82.9625
450 1 -1.643 8.28527 -82.9625
452 1 1.546 8.28527 -82.9625
454 1 4.735 8.28527 -82.9625
456 1 7.924 8.28527 -82.9625
458 1 11.113 8.28527 -82.9625
460 1 14.302 8.28527 -82.9625
462 1 17.491 8.28527 -82.9625
464 1 20.68 8.28527 -82.9625
466 1 23.869 8.28527 -82.9625
468 1 27.058 8.28527 -82.9625
470 1 30.247 8.28527 -82.9625
472 1 33.436 8.28527 -82.9625
474 1 36.625 8.28527 -82.9625
476 1 39.814 8.28527 -82.9625
478 1 43.003 8.28527 -82.9625
480 1 46.192 8.28527 -82.9625
482 1 49.381 8.28527 -82.9625
484 1 52.57 8.28527 -82.9625
486 1 55.759 8.28527 -82.9625
488 1 58.948 8.28527 -82.9625
490 1 62.137 8.28527 -82.9625
492 1 65.326 8.28527 -82.9625
494 1 68.515 8.28527 -82.9625
496 1 71.704 8.28527 -82.9625
498 1 74.893 8.28527 -82.9625
500 1 78.082 8.28527 -82.9625
502 1 81.271 8.28527 -82.9625
504 1 84.46 8.28527 -82.9625
506 1 87.649 8.28527 -82.9625
508 1 90.838 8.28527 -82.9625
510 1 94.027 8.28527 -82.9625
512 1 97.216 8.28527 -82.9625
514 1 100.405 8.28527 -82.9625
516 1 103.594 8.28527 -82.9625
518 1 106.783 8.28527 -82.9625
520 1 109.972 8.28527 -82.9625
522 1 113.161 8.28527 -82.9625
524 1 116.35 8.28527 -82.9625
526 1 119.539 8.28527 -82.9625
528 1 122.728 8.28527 -82.9625
530 1 125.917 8.28527 -82.9625
531 1 -82.9625 11.047 -82.9625
533 1 -79.7735 11.047 -82.9625
535 1 -76.5845 11.047 -82.9625
537 1 -73.3955 11.047 -82.9625
539 1 -70.2065 11.047 -82.9625
541 1 -67.0175 11.047 -82.9625
543 1 -63.8285 11.047 -82.9625
545 1 -60.6395 11.047 -82.9625
547 1 -57.4505 11.047 -82.9625
549 1 -54.2615 11.047 -82.9625
551 1 -51.0725 11.047 -82.9625
553 1 -47.8835 11.047 -82.9625
555 1 -44.6945 11.047 -82.9625
557 1 -41.5055 11.047 -82.9625
559 1 -38.3165 11.047 -82.9625
561 1 -35.1275 11.047 -82.9625
563 1 -31.9385 11.047 -82.9625
565 1 -28.7495 11.047 -82.9625
567 1 -25.5605 11.047 -82.9625
569 1 -22.3715 11.047 -82.9625
571 1 -19.1825 11.047 -82.9625
573 1 -15.9935 11.047 -82.9625
575 1 -12.8045 11.047 -82.9625
577 1 -9.6155 11.047 -82.9625
579 1 -6.4265 11.047 -82.9625
581 1 -3.2375 11.047 -82.9625
583 1 -0.0484977 11.047 -82.9625
585 1 3.1405 11.047 -82.9625
587 1 6.3295 11.047 -82.9625
589 1 9.5185 11.047 -82.9625
591 1 12.7075 11.047 -82.9625
593 1 15.8965 11.047 -82.9625
595 1 19.0855 11.047 -82.9625
597 1 22.2745 11.047 -82.9625
599 1 25.4635 11.047 -82.9625
601 1 28.6525 11.047 -82.9625
603 1 31.8415 11.047 -82.9625
605 1 35.0305 11.047 -82.9625
607 1 38.2195 11.047 -82.9625
609 1 41.4085 11.047 -82.9625
611 1 44.5975 11.047 -82.9625
613 1 47.7865 11.047 -82.9625
615 1 50.9755 11.047 -82.9625
617 1 54.1645 11.047 -82.9625
619 1 57.3535 11.047 -82.9625
621 1 60.5425 11.047 -82.9625
623 1 63.7315 11.047 -82.9625
625 1 66.9205 11.047 -82.9625
627 1 70.1095 11.047 -82.9625
629 1 73.2985 11.047 -82.9625
631 1 76.4875 11.047 -82.9625
633 1 79.6765 11.047 -82.9625
635 1 82.8655 11.047 -82.9625
637 1 86.0545 11.047 -82.9625
639 1 89.2435 11.047 -82.9625
641 1 92.4325 11.047 -82.9625
643 1 95.6215 11.047 -82.9625
645 1 98.8105 11.047 -82.9625
647 1 102 11.047 -82.9625
649 1 105.189 11.047 -82.9625
651 1 108.378 11.047 -82.9625
653 1 111.567 11.047 -82.9625
655 1 114.756 11.047 -82.9625
657 1 117.945 11.047 -82.9625
659 1 121.134 11.047 -82.9625
661 1 124.323 11.047 -82.9625
663 1 127.512 11.047 -82.9625
665 1 -81.368 13.8088 -82.9625
667 1 -78.179 13.8088 -82.9625
669 1 -74.99 13.8088 -82.9625
671 1 -71.801 13.8088 -82.9625
673 1 -68.612 13.8088 -82.9625
675 1 -65.423 13.8088 -82.9625
677 1 -62.234 13.8088 -82.9625
679 1 -59.045 13.8088 -82.9625
681 1 -55.856 13.8088 -82.9625
683 1 -52.667 13.8088 -82.9625
685 1 -49.478 13.8088 -82.9625
687 1 -46.289 13.8088 -82.9625
689 1 -43.1 13.8088 -82.9625
691 1 -39.911 13.8088 -82.9625
693 1 -36.722 13.8088 -82.9625
695 1 -33.533 13.8088 -82.9625
697 1 -30.344 13.8088 -82.9625
699 1 -27.155 13.8088 -82.9625
701 1 -23.966 13.8088 -82.9625
703 1 -20.777 13.8088 -82.9625
705 1 -17.588 13.8088 -82.9625
707 1 -14.399 13.8088 -82.9625
709 1 -11.21 13.8088 -82.9625
711 1 -8.021 13.8088 -82.9625
713 1 -4.832 13.8088 -82.9625
715 1 -1.643 13.8088 -82.9625
717 1 1.546 13.8088 -82.9625
719 1 4.735 13.8088 -82.9625
721 1 7.924 13.8088 -82.9625
723 1 11.113 13.8088 -82.9625
725 1 14.302 13.8088 -82.9625
727 1 17.491 13.8088 -82.9625
729 1 20.68 13.8088 -82.9625
731 1 23.869 13.8088 -82.9625
733 1 27.058 13.8088 -82.9625
735 1 30.247 13.8088 -82.9625
737 1 33.436 13.8088 -82.9625
739 1 36.625 13.8088 -82.9625
741 1 39.814 13.8088 -82.9625
743 1 43.003 13.8088 -82.9625
745 1 46.192 13.8088 -82.9625
747 1 49.381 13.8088 -82.9625
749 1 52.57 13.8088 -82.9625
751 1 55.759 13.8088 -82.9625
753 1 58.948 13.8088 -82.9625
755 1 62.137 13.8088 -82.9625
757 1 65.326 13.8088 -82.9625
759 1 68.515 13.8088 -82.9625
761 1 71.704 13.8088 -82.9625
763 1 74.893 13.8088 -82.9625
765 1 78.082 13.8088 -82.9625
767 1 81.271 13.8088 -82.9625
769 1 84.46 13.8088 -82.9625
771 1 87.649 13.8088 -82.9625
773 1 90.838 13.8088 -82.9625
775 1 94.027 13.8088 -82.9625
777 1 97.216 13.8088 -82.9625
779 1 100.405 13.8088 -82.9625
781 1 103.594 13.8088 -82.9625
783 1 106.783 13.8088 -82.9625
785 1 109.972 13.8088 -82.9625
787 1 113.161 13.8088 -82.9625
789 1 116.35 13.8088 -82.9625
791 1 119.539 13.8088 -82.9625
793 1 122.728 13.8088 -82.9625
795 1 125.917 13.8088 -82.9625
796 1 -82.9625 16.5705 -82.9625
798 1 -79.7735 16.5705 -82.9625
800 1 -76.5845 16.5705 -82.9625
802 1 -73.3955 16.5705 -82.9625
804 1 -70.2065 16.5705 -82.9625
806 1 -67.0175 16.5705 -82.9625
808 1 -63.8285 16.5705 -82.9625
810 1 -60.6395 16.5705 -82.9625
812 1 -57.4505 16.5705 -82.9625
814 1 -54.2615 16.5705 -82.9625
816 1 -51.0725 16.5705 -82.9625
818 1 -47.8835 16.5705 -82.9625
820 1 -44.6945 16.5705 -82.9625
822 1 -41.5055 16.5705 -82.9625
824 1 -38.3165 16.5705 -82.9625
826 1 -35.1275 16.5705 -82.9625
828 1 -31.9385 16.5705 -82.9625
830 1 -28.7495 16.5705 -82.9625
832 1 -25.5605 16.5705 -82.9625
834 1 -22.3715 16.5705 -82.9625
836 1 -19.1825 16.5705 -82.9625
838 1 -15.9935 16.5705 -82.9625
840 1 -12.8045 16.5705 -82.9625
842 1 -9.6155 16.5705 -82.9625
844 1 -6.4265 16.5705 -82.9625
846 1 -3.2375 16.5705 -82.9625
848 1 -0.0484977 16.5705 -82.9625
850 1 3.1405 16.5705 -82.9625
852 1 6.3295 16.5705 -82.9625
854 1 9.5185 16.5705 -82.9625
856 1 12.7075 16.5705 -82.9625
858 1 15.8965 16.5705 -82.9625
860 1 19.0855 16.5705 -82.9625
862 1 22.2745 16.5705 -82.9625
864 1 25.4635 16.5705 -82.9625
866 1 28.6525 16.5705 -82.9625
868 1 31.8415 16.5705 -82.9625
870 1 35.0305 16.5705 -82.9625
872 1 38.2195 16.5705 -82.9625
874 1 41.4085 16.5705 -82.9625
876 1 44.5975 16.5705 -82.9625
878 1 47.7865 16.5705 -82.9625
880 1 50.9755 16.5705 -82.9625
882 1 54.1645 16.5705 -82.9625
884 1 57.3535 16.5705 -82.9625
886 1 60.5425 16.5705 -82.9625
888 1 63.7315 16.5705 -82.9625
890 1 66.9205 16.5705 -82.9625
892 1 70.1095 16.5705 -82.9625
894 1 73.2985 16.5705 -82.9625
896 1 76.4875 16.5705 -82.9625
898 1 79.6765 16.5705 -82.9625
900 1 82.8655 16.5705 -82.9625
902 1 86.0545 16.5705 -82.9625
904 1 89.2435 16.5705 -82.9625
906 1 92.4325 16.5705 -82.9625
908 1 95.6215 16.5705 -82.9625
910 1 98.8105 16.5705 -82.9625
912 1 102 16.5705 -82.9625
914 1 105.189 16.5705 -82.9625
916 1 108.378 16.5705 -82.9625
918 1 111.567 16.5705 -82.9625
920 1 114.756 16.5705 -82.9625
922 1 117.945 16.5705 -82.9625
924 1 121.134 16.5705 -82.9625
926 1 124.323 16.5705 -82.9625
928 1 127.512 16.5705 -82.9625
930 1 -81.368 19.3323 -82.9625
932 1 -78.179 19.3323 -82.9625
934 1 -74.99 19.3323 -82.9625
936 1 -71.801 19.3323 -82.9625
938 1 -68.612 19.3323 -82.9625
940 1 -65.423 19.3323 -82.9625
942 1 -62.234 19.3323 -82.9625
944 1 -59.045 19.3323 -82.9625
946 1 -55.856 19.3323 -82.9625
948 1 -52.667 19.3323 -82.9625
950 1 -49.478 19.3323 -82.9625
952 1 -46.289 19.3323 -82.9625
954 1 -43.1 19.3323 -82.9625
956 1 -39.911 19.3323 -82.9625
958 1 -36.722 19.3323 -82.9625
960 1 -33.533 19.3323 -82.9625
962 1 -30.344 19.3323 -82.9625
964 1 -27.155 19.3323 -82.9625
966 1 -23.966 19.3323 -82.9625
968 1 -20.777 19.3323 -82.9625
970 1 -17.588 19.3323 -82.9625
972 1 -14.399 19.3323 -82.9625
974 1 -11.21 19.3323 -82.9625
976 1 -8.021 19.3323 -82.9625
978 1 -4.832 19.3323 -82.9625
980 1 -1.643 19.3323 -82.9625
982 1 1.546 19.3323 -82.9625
984 1 4.735 19.3323 -82.9625
986 1 7.924 19.3323 -82.9625
988 1 11.113 19.3323 -82.9625
990 1 14.302 19.3323 -82.9625
992 1 17.491 19.3323 -82.9625
994 1 20.68 19.3323 -82.9625
996 1 23.869 19.3323 -82.9625
998 1 27.058 19.3323 -82.9625
1000 1 30.247 19.3323 -82.9625
1002 1 33.436 19.3323 -82.9625
1004 1 36.625 19.3323 -82.9625
1006 1 39.814 19.3323 -82.9625
1008 1 43.003 19.3323 -82.9625
1010 1 46.192 19.3323 -82.9625
1012 1 49.381 19.3323 -82.9625
1014 1 52.57 19.3323 -82.9625
1016 1 55.759 19.3323 -82.9625
1018 1 58.948 19.3323 -82.9625
1020 1 62.137 19.3323 -82.9625
1022 1 65.326 19.3323 -82.9625
1024 1 68.515 19.3323 -82.9625
1026 1 71.704 19.3323 -82.9625
1028 1 74.893 19.3323 -82.9625
1030 1 78.082 19.3323 -82.9625
1032 1 81.271 19.3323 -82.9625
1034 1 84.46 19.3323 -82.9625
1036 1 87.649 19.3323 -82.9625
1038 1 90.838 19.3323 -82.9625
1040 1 94.027 19.3323 -82.9625
1042 1 97.216 19.3323 -82.9625
1044 1 100.405 19.3323 -82.9625
1046 1 103.594 19.3323 -82.9625
1048 1 106.783 19.3323 -82.9625
1050 1 109.972 19.3323 -82.9625
1052 1 113.161 19.3323 -82.9625
1054 1 116.35 19.3323 -82.9625
1056 1 119.539 19.3323 -82.9625
1058 1 122.728 19.3323 -82.9625
1060 1 125.917 19.3323 -82.9625
1061 1 -82.9625 22.094 -82.9625
1063 1 -79.7735 22.094 -82.9625
1065 1 -76.5845 22.094 -82.9625
1067 1 -73.3955 22.094 -82.9625
1069 1 -70.2065 22.094 -82.9625
1071 1 -67.0175 22.094 -82.9625
1073 1 -63.8285 22.094 -82.9625
1075 1 -60.6395 22.094 -82.9625
1077 1 -57.4505 22.094 -82.9625
1079 1 -54.2615 22.094 -82.9625
1081 1 -51.0725 22.094 -82.9625
1083 1 -47.8835 22.094 -82.9625
1085 1 -44.6945 22.094 -82.9625
1087 1 -41.5055 22.094 -82.9625
1089 1 -38.3165 22.094 -82.9625
1091 1 -35.1275 22.094 -82.9625
1093 1 -31.9385 22.094 -82.9625
1095 1 -28.7495 22.094 -82.9625
1097 1 -25.5605 22.094 -82.9625
1099 1 -22.3715 22.094 -82.9625
1101 1 -19.1825 22.094 -82.9625
1103 1 -15.9935 22.094 -82.9625
1105 1 -12.8045 22.094 -82.9625
1107 1 -9.6155 22.094 -82.9625
1109 1 -6.4265 22.094 -82.9625
1111 1 -3.2375 22.094 -82.9625
1113 1 -0.0484977 22.094 -82.9625
1115 1 3.1405 22.094 -82.9625
1117 1 6.3295 22.094 -82.9625
1119 1 9.5185 22.094 -82.9625
1121 1 12.7075 22.094 -82.9625
1123 1 15.8965 22.094 -82.9625
1125 1 19.0855 22.094 -82.9625
1127 1 22.2745 22.094 -82.9625
1129 1 25.4635 22.094 -82.9625
1131 1 28.6525 22.094 -82.9625
1133 1 31.8415 22.094 -82.9625
1135 1 35.0305 22.094 -82.9625
1137 1 38.2195 22.094 -82.9625
1139 1 41.4085 22.094 -82.9625
1141 1 44.5975 22.094 -82.9625
1143 1 47.7865 22.094 -82.9625
1145 1 50.9755 22.094 -82.9625
1147 1 54.1645 22.094 -82.9625
1149 1 57.3535 22.094 -82.9625
1151 1 60.5425 22.094 -82.9625
1153 1 63.7315 22.094 -82.9625
1155 1 66.9205 22.094 -82.9625
1157 1 70.1095 22.094 -82.9625
1159 1 73.2985 22.094 -82.9625
1161 1 76.4875 22.094 -82.9625
1163 1 79.6765 22.094 -82.9625
1165 1 82.8655 22.094 -82.9625
1167 1 86.0545 22.094 -82.9625
1169 1 89.2435 22.094 -82.9625
1171 1 92.4325 22.094 -82.9625
1173 1 95.6215 22.094 -82.9625
1175 1 98.8105 22.094 -82.9625
1177 1 102 22.094 -82.9625
1179 1 105.189 22.094 -82.9625
1181 1 108.378 22.094 -82.9625
1183 1 111.567 22.094 -82.9625
1185 1 114.756 22.094 -82.9625
1187 1 117.945 22.094 -82.9625
1189 1 121.134 22.094 -82.9625
1191 1 124.323 22.094 -82.9625
1193 1 127.512 22.094 -82.9625
1195 1 -81.368 24.8558 -82.9625
1197 1 -78.179 24.8558 -82.9625
1199 1 -74.99 24.8558 -82.9625
1201 1 -71.801 24.8558 -82.9625
1203 1 -68.612 24.8558 -82.9625
1205 1 -65.423 24.8558 -82.9625
1207 1 -62.234 24.8558 -82.9625
1209 1 -59.045 24.8558 -82.9625
1211 1 -55.856 24.8558 -82.9625
1213 1 -52.667 24.8558 -82.9625
1215 1 -49.478 24.8558 -82.9625
1217 1 -46.289 24.8558 -82.9625
1219 1 -43.1 24.8558 -82.9625
1221 1 -39.911 24.8558 -82.9625
1223 1 -36.722 24.8558 -82.9625
1225 1 -33.533 24.8558 -82.9625
1227 1 -30.344 24.8558 -82.9625
1229 1 -27.155 24.8558 -82.9625
1231 1 -23.966 24.8558 -82.9625
1233 1 -20.777 24.8558 -82.9625
1235 1 -17.588 24.8558 -82.9625
1237 1 -14.399 24.8558 -82.9625
1239 1 -11.21 24.8558 -82.9625
1241 1 -8.021 24.8558 -82.9625
1243 1 -4.832 24.8558 -82.9625
1245 1 -1.643 24.8558 -82.9625
1247 1 1.546 24.8558 -82.9625
1249 1 4.735 24.8558 -82.9625
1251 1 7.924 24.8558 -82.9625
1253 1 11.113 24.8558 -82.9625
1255 1 14.302 24.8558 -82.9625
1257 1 17.491 24.8558 -82.9625
1259 1 20.68 24.8558 -82.9625
1261 1 23.869 24.8558 -82.9625
1263 1 27.058 24.8558 -82.9625
1265 1 30.247 24.8558 -82.9625
1267 1 33.436 24.8558 -82.9625
1269 1 36.625 24.8558 -82.9625
1271 1 39.814 24.8558 -82.9625
1273 1 43.003 24.8558 -82.9625
1275 1 46.192 24.8558 -82.9625
1277 1 49.381 24.8558 -82.9625
1279 1 52.57 24.8558 -82.9625
1281 1 55.759 24.8558 -82.9625
1283 1 58.948 24.8558 -82.9625
1285 1 62.137 24.8558 -82.9625
1287 1 65.326 24.8558 -82.9625
1289 1 68.515 24.8558 -82.9625
1291 1 71.704 24.8558 -82.9625
1293 1 74.893 24.8558 -82.9625
1295 1 78.082 24.8558 -82.9625
1297 1 81.271 24.8558 -82.9625
1299 1 84.46 24.8558 -82.9625
1301 1 87.649 24.8558 -82.9625
1303 1 90.838 24.8558 -82.9625
1305 1 94.027 24.8558 -82.9625
1307 1 97.216 24.8558 -82.9625
1309 1 100.405 24.8558 -82.9625
1311 1 103.594 24.8558 -82.9625
1313 1 106.783 24.8558 -82.9625
1315 1 109.972 24.8558 -82.9625
1317 1 113.161 24.8558 -82.9625
1319 1 116.35 24.8558 -82.9625
1321 1 119.539 24.8558 -82.9625
1323 1 122.728 24.8558 -82.9625
1325 1 125.917 24.8558 -82.9625
1326 1 -82.9625 27.6176 -82.9625
1328 1 -79.7735 27.6176 -82.9625
1330 1 -76.5845 27.6176 -82.9625
1332 1 -73.3955 27.6176 -82.9625
1334 1 -70.2065 27.6176 -82.9625
1336 1 -67.0175 27.6176 -82.9625
1338 1 -63.8285 27.6176 -82.9625
1340 1 -60.6395 27.6176 -82.9625
1342 1 -57.4505 27.6176 -82.9625
1344 1 -54.2615 27.6176 -82.9625
1346 1 -51.0725 27.6176 -82.9625
1348 1 -47.8835 27.6176 -82.9625
1350 1 -44.6945 27.6176 -82.9625
1352 1 -41.5055 27.6176 -82.9625
1354 1 -38.3165 27.6176 -82.9625
1356 1 -35.1275 27.6176 -82.9625
1358 1 -31.9385 27.6176 -82.9625
1360 1 -28.7495 27.6176 -82.9625
1362 1 -25.5605 27.6176 -82.9625
1364 1 -22.3715 27.6176 -82.9625
1366 1 -19.1825 27.6176 -82.9625
1368 1 -15.9935 27.6176 -82.9625
1370 1 -12.8045 27.6176 -82.9625
1372 1 -9.6155 27.6176 -82.9625
1374 1 -6.4265 27.6176 -82.9625
1376 1 -3.2375 27.6176 -82.9625
1378 1 -0.0484977 27.6176 -82.9625
1380 1 3.1405 27.6176 -82.9625
1382 1 6.3295 27.6176 -82.9625
1384 1 9.5185 27.6176 -82.9625
1386 1 12.7075 27.6176 -82.9625
1388 1 15.8965 27.6176 -82.9625
1390 1 19.0855 27.6176 -82.9625
1392 1 22.2745 27.6176 -82.9625
1394 1 25.4635 27.6176 -82.9625
1396 1 28.6525 27.6176 -82.9625
1398 1 31.8415 27.6176 -82.9625
1400 1 35.0305 27.6176 -82.9625
1402 1 38.2195 27.6176 -82.9625
1404 1 41.4085 27.6176 -82.9625
1406 1 44.5975 27.6176 -82.9625
1408 1 47.7865 27.6176 -82.9625
1410 1 50.9755 27.6176 -82.9625
1412 1 54.1645 27.6176 -82.9625
1414 1 57.3535 27.6176 -82.9625
1416 1 60.5425 27.6176 -82.9625
1418 1 63.7315 27.6176 -82.9625
1420 1 66.9205 27.6176 -82.9625
1422 1 70.1095 27.6176 -82.9625
1424 1 73.2985 27.6176 -82.9625
1426 1 76.4875 27.6176 -82.9625
1428 1 79.6765 27.6176 -82.9625
1430 1 82.8655 27.6176 -82.9625
1432 1 86.0545 27.6176 -82.9625
1434 1 89.2435 27.6176 -82.9625
1436 1 92.4325 27.6176 -82.9625
1438 1 95.6215 27.6176 -82.9625
1440 1 98.8105 27.6176 -82.9625
1442 1 102 27.6176 -82.9625
1444 1 105.189 27.6176 -82.9625
1446 1 108.378 27.6176 -82.9625
1448 1 111.567 27.6176 -82.9625
1450 1 114.756 27.6176 -82.9625
1452 1 117.945 27.6176 -82.9625
1454 1 121.134 27.6176 -82.9625
1456 1 124.323 27.6176 -82.9625
1458 1 127.512 27.6176 -82.9625
1460 1 -81.368 30.3793 -82.9625
1462 1 -78.179 30.3793 -82.9625
1464 1 -74.99 30.3793 -82.9625
1466 1 -71.801 30.3793 -82.9625
1468 1 -68.612 30.3793 -82.9625
1470 1 -65.423 30.3793 -82.9625
1472 1 -62.234 30.3793 -82.9625
1474 1 -59.045 30.3793 -82.9625
1476 1 -55.856 30.3793 -82.9625
1478 1 -52.667 30.3793 -82.9625
1480 1 -49.478 30.3793 -82.9625
1482 1 -46.289 30.3793 -82.9625
1484 1 -43.1 30.3793 -82.9625
1486 1 -39.911 30.3793 -82.9625
1488 1 -36.722 30.3793 -82.9625
1490 1 -33.533 30.3793 -82.9625
1492 1 -30.344 30.3793 -82.9625
1494 1 -27.155 30.3793 -82.9625
1496 1 -23.966 30.3793 -82.9625
1498 1 -20.777 30.3793 -82.9625
1500 1 -17.588 30.3793 -82.9625
1502 1 -14.399 30.3793 -82.9625
1504 1 -11.21 30.3793 -82.9625
1506 1 -8.021 30.3793 -82.9625
1508 1 -4.832 30.3793 -82.9625
1510 1 -1.643 30.3793 -82.9625
1512 1 1.546 30.3793 -82.9625
1514 1 4.735 30.3793 -82.9625
1516 1 7.924 30.3793 -82.9625
1518 1 11.113 30.3793 -82.9625
1520 1 14.302 30.3793 -82.9625
1522 1 17.491 30.3793 -82.9625
1524 1 20.68 30.3793 -82.9625
1526 1 23.869 30.3793 -82.9625
1528 1 27.058 30.3793 -82.9625
1530 1 30.247 30.3793 -82.9625
1532 1 33.436 30.3793 -82.9625
1534 1 36.625 30.3793 -82.9625
1536 1 39.814 30.3793 -82.9625
1538 1 43.003 30.3793 -82.9625
1540 1 46.192 30.3793 -82.9625
1542 1 49.381 30.3793 -82.9625
1544 1 52.57 30.3793 -82.9625
1546 1 55.759 30.3793 -82.9625
1548 1 58.948 30.3793 -82.9625
1550 1 62.137 30.3793 -82.9625
1552 1 65.326 30.3793 -82.9625
1554 1 68.515 30.3793 -82.9625
1556 1 71.704 30.3793 -82.9625
1558 1 74.893 30.3793 -82.9625
1560 1 78.082 30.3793 -82.9625
1562 1 81.271 30.3793 -82.9625
1564 1 84.46 30.3793 -82.9625
1566 1 87.649 30.3793 -82.9625
1568 1 90.838 30.3793 -82.9625
1570 1 94.027 30.3793 -82.9625
1572 1 97.216 30.3793 -82.9625
1574 1 100.405 30.3793 -82.9625
1576 1 103.594 30.3793 -82.9625
1578 1 106.783 30.3793 -82.9625
1580 1 109.972 30.3793 -82.9625
1582 1 113.161 30.3793 -82.9625
1584 1 116.35 30.3793 -82.9625
1586 1 119.539 30.3793 -82.9625
1588 1 122.728 30.3793 -82.9625
1590 1 125.917 30.3793 -82.9625
1591 1 -82.9625 33.1411 -82.9625
1592 1 -79.7735 33.1411 -82.9625
1593 1 -76.5845 33.1411 -82.9625
1594 1 -73.3955 33.1411 -82.9625
1595 1 -70.2065 33.1411 -82.9625
1596 1 -67.0175 33.1411 -82.9625
1597 1 -63.8285 33.1411 -82.9625
1598 1 -60.6395 33.1411 -82.9625
1599 1 -57.4505 33.1411 -82.9625
1600 1 -54.2615 33.1411 -82.9625
1601 1 -51.0725 33.1411 -82.9625
1602 1 -47.8835 33.1411 -82.9625
1603 1 -44.6945 33.1411 -82.9625
1604 1 -41.5055 33.1411 -82.9625
1605 1 -38.3165 33.1411 -82.9625
1606 1 -35.1275 33.1411 -82.9625
1607 1 -31.9385 33.1411 -82.9625
1608 1 -28.7495 33.1411 -82.9625
1609 1 -25.5605 33.1411 -82.9625
1610 1 -22.3715 33.1411 -82.9625
1611 1 -19.1825 33.1411 -82.9625
1612 1 -15.9935 33.1411 -82.9625
1613 1 -12.8045 33.1411 -82.9625
1614 1 -9.6155 33.1411 -82.9625
1615 1 -6.4265 33.1411 -82.9625
1616 1 -3.2375 33.1411 -82.9625
1617 1 -0.0484977 33.1411 -82.9625
1618 1 3.1405 33.1411 -82.9625
1619 1 6.3295 33.1411 -82.9625
1620 1 9.5185 33.1411 -82.9625
1621 1 12.7075 33.1411 -82.9625
1622 1 15.8965 33.1411 -82.9625
1623 1 19.0855 33.1411 -82.9625
1624 1 22.2745 33.1411 -82.9625
1625 1 25.4635 33.1411 -82.9625
1626 1 28.6525 33.1411 -82.9625
1627 1 31.8415 33.1411 -82.9625
1628 1 35.0305 33.1411 -82.9625
1629 1 38.2195 33.1411 -82.9625
1630 1 41.4085 33.1411 -82.9625
1631 1 44.5975 33.1411 -82.9625
1632 1 47.7865 33.1411 -82.9625
1633 1 50.9755 33.1411 -82.9625
1634 1 54.1645 33.1411 -82.9625
1635 1 57.3535 33.1411 -82.9625
1636 1 60.5425 33.1411 -82.9625
1637 1 63.7315 33.1411 -82.9625
1638 1 66.9205 33.1411 -82.9625
1639 1 70.1095 33.1411 -82.9625
1640 1 73.2985 33.1411 -82.9625
1641 1 76.4875 33.1411 -82.9625
1642 1 79.6765 33.1411 -82.9625
1643 1 82.8655 33.1411 -82.9625
1644 1 86.0545 33.1411 -82.9625
1645 1 89.2435 33.1411 -82.9625
1646 1 92.4325 33.1411 -82.9625
1647 1 95.6215 33.1411 -82.9625
1648 1 98.8105 33.1411 -82.9625
1649 1 102 33.1411 -82.9625
1650 1 105.189 33.1411 -82.9625
1651 1 108.378 33.1411 -82.9625
1652 1 111.567 33.1411 -82.9625
1653 1 114.756 33.1411 -82.9625
1654 1 117.945 33.1411 -82.9625
1655 1 121.134 33.1411 -82.9625
1656 1 124.323 33.1411 -82.9625
1657 1 127.512 33.1411 -82.9625
2 1 -81.4 1.01668 -74.6778
4 1 -78.211 1.01668 -74.6778
6 1 -75.022 1.01668 -74.6778
8 1 -71.833 1.01668 -74.6778
10 1 -68.644 1.01668 -74.6778
12 1 -65.455 1.01668 -74.6778
14 1 -62.266 1.01668 -74.6778
16 1 -59.077 1.01668 -74.6778
18 1 -55.888 1.01668 -74.6778
20 1 -52.699 1.01668 -74.6778
22 1 -49.51 1.01668 -74.6778
24 1 -46.321 1.01668 -74.6778
26 1 -43.132 1.01668 -74.6778
28 1 -39.943 1.01668 -74.6778
30 1 -36.754 1.01668 -74.6778
32 1 -33.565 1.01668 -74.6778
34 1 -30.376 1.01668 -74.6778
36 1 -27.187 1.01668 -74.6778
38 1 -23.998 1.01668 -74.6778
40 1 -20.809 1.01668 -74.6778
42 1 -17.62 1.01668 -74.6778
44 1 -14.431 1.01668 -74.6778
46 1 -11.242 1.01668 -74.6778
48 1 -8.05299 1.01668 -74.6778
50 1 -4.86399 1.01668 -74.6778
52 1 -1.67499 1.01668 -74.6778
54 1 1.51401 1.01668 -74.6778
56 1 4.70301 1.01668 -74.6778
58 1 7.89201 1.01668 -74.6778
60 1 11.081 1.01668 -74.6778
62 1 14.27 1.01668 -74.6778
64 1 17.459 1.01668 -74.6778
66 1 20.648 1.01668 -74.6778
68 1 23.837 1.01668 -74.6778
70 1 27.026 1.01668 -74.6778
72 1 30.215 1.01668 -74.6778
74 1 33.404 1.01668 -74.6778
76 1 36.593 1.01668 -74.6778
78 1 39.782 1.01668 -74.6778
80 1 42.971 1.01668 -74.6778
82 1 46.16 1.01668 -74.6778
84 1 49.349 1.01668 -74.6778
86 1 52.538 1.01668 -74.6778
88 1 55.727 1.01668 -74.6778
90 1 58.916 1.01668 -74.6778
92 1 62.105 1.01668 -74.6778
94 1 65.294 1.01668 -74.6778
96 1 68.483 1.01668 -74.6778
98 1 71.672 1.01668 -74.6778
100 1 74.861 1.01668 -74.6778
102 1 78.05 1.01668 -74.6778
104 1 81.239 1.01668 -74.6778
106 1 84.428 1.01668 -74.6778
108 1 87.617 1.01668 -74.6778
110 1 90.806 1.01668 -74.6778
112 1 93.995 1.01668 -74.6778
114 1 97.184 1.01668 -74.6778
116 1 100.373 1.01668 -74.6778
118 1 103.562 1.01668 -74.6778
120 1 106.751 1.01668 -74.6778
122 1 109.94 1.01668 -74.6778
124 1 113.129 1.01668 -74.6778
126 1 116.318 1.01668 -74.6778
128 1 119.507 1.01668 -74.6778
130 1 122.696 1.01668 -74.6778
132 1 125.885 1.01668 -74.6778
134 1 -82.9623 3.68225 -74.695
136 1 -79.8055 3.77843 -74.6778
138 1 -76.6165 3.77843 -74.6778
140 1 -73.4275 3.77843 -74.6778
142 1 -70.2385 3.77843 -74.6778
144 1 -67.0495 3.77843 -74.6778
146 1 -63.8605 3.77843 -74.6778
148 1 -60.6715 3.77843 -74.6778
150 1 -57.4825 3.77843 -74.6778
152 1 -54.2935 3.77843 -74.6778
154 1 -51.1045 3.77843 -74.6778
156 1 -47.9155 3.77843 -74.6778
158 1 -44.7265 3.77843 -74.6778
160 1 -41.5375 3.77843 -74.6778
162 1 -38.3485 3.77843 -74.6778
164 1 -35.1595 3.77843 -74.6778
166 1 -31.9705 3.77843 -74.6778
168 1 -28.7815 3.77843 -74.6778
170 1 -25.5925 3.77843 -74.6778
172 1 -22.4035 3.77843 -74.6778
174 1 -19.2145 3.77843 -74.6778
176 1 -16.0255 3.77843 -74.6778
178 1 -12.8365 3.77843 -74.6778
180 1 -9.64749 3.77843 -74.6778
182 1 -6.45849 3.77843 -74.6778
184 1 -3.26949 3.77843 -74.6778
186 1 -0.0804916 3.77843 -74.6778
188 1 3.10851 3.77843 -74.6778
190 1 6.29751 3.77843 -74.6778
192 1 9.48651 3.77843 -74.6778
194 1 12.6755 3.77843 -74.6778
196 1 15.8645 3.77843 -74.6778
198 1 19.0535 3.77843 -74.6778
200 1 22.2425 3.77843 -74.6778
202 1 25.4315 3.77843 -74.6778
204 1 28.6205 3.77843 -74.6778
206 1 31.8095 3.77843 -74.6778
208 1 34.9985 3.77843 -74.6778
210 1 38.1875 3.77843 -74.6778
212 1 41.3765 3.77843 -74.6778
214 1 44.5655 3.77843 -74.6778
216 1 47.7545 3.77843 -74.6778