ITEM: TIMESTEP
21000
ITEM: NUMBER OF ATOMS
14121
ITEM: BOX BOUNDS ss ss ss
-9.5702223698971522e+01 6.8676965442182643e+02
-1.0231754111503553e+00 8.0972264621663200e+01
-9.5687787398288719e+01 5.4333967383882248e+02
ITEM: ATOMS id type x y z
1 1 -95.7644 0 -95.7644
3 1 -92.5754 0 -95.7644
5 1 -89.3864 0 -95.7644
7 1 -86.1974 0 -95.7644
9 1 -83.0084 0 -95.7644
11 1 -79.8194 0 -95.7644
13 1 -76.6304 0 -95.7644
15 1 -73.4414 0 -95.7644
17 1 -70.2524 0 -95.7644
19 1 -67.0634 0 -95.7644
21 1 -63.8744 0 -95.7644
23 1 -60.6854 0 -95.7644
25 1 -57.4964 0 -95.7644
27 1 -54.3074 0 -95.7644
29 1 -51.1184 0 -95.7644
31 1 -47.9294 0 -95.7644
33 1 -44.7404 0 -95.7644
35 1 -41.5514 0 -95.7644
37 1 -38.3624 0 -95.7644
39 1 -35.1734 0 -95.7644
41 1 -31.9844 0 -95.7644
43 1 -28.7954 0 -95.7644
45 1 -25.6064 0 -95.7644
47 1 -22.4174 0 -95.7644
49 1 -19.2284 0 -95.7644
51 1 -16.0394 0 -95.7644
53 1 -12.8504 0 -95.7644
55 1 -9.66138 0 -95.7644
57 1 -6.47238 0 -95.7644
59 1 -3.28338 0 -95.7644
61 1 -0.0943844 0 -95.7644
63 1 3.09462 0 -95.7644
65 1 6.28362 0 -95.7644
67 1 9.47262 0 -95.7644
69 1 12.6616 0 -95.7644
71 1 15.8506 0 -95.7644
73 1 19.0396 0 -95.7644
75 1 22.2286 0 -95.7644
77 1 25.4176 0 -95.7644
79 1 28.6066 0 -95.7644
81 1 31.7956 0 -95.7644
83 1 34.9846 0 -95.7644
85 1 38.1736 0 -95.7644
87 1 41.3626 0 -95.7644
89 1 44.5516 0 -95.7644
91 1 47.7406 0 -95.7644
93 1 50.9296 0 -95.7644
95 1 54.1186 0 -95.7644
97 1 57.3076 0 -95.7644
99 1 60.4966 0 -95.7644
101 1 63.6856 0 -95.7644
103 1 66.8746 0 -95.7644
105 1 70.0636 0 -95.7644
107 1 73.2526 0 -95.7644
109 1 76.4416 0 -95.7644
111 1 79.6306 0 -95.7644
113 1 82.8196 0 -95.7644
115 1 86.0086 0 -95.7644
117 1 89.1976 0 -95.7644
119 1 92.3866 0 -95.7644
121 1 95.5756 0 -95.7644
123 1 98.7646 0 -95.7644
125 1 101.954 0 -95.7644
127 1 105.143 0 -95.7644
129 1 108.332 0 -95.7644
131 1 111.521 0 -95.7644
133 1 114.71 0 -95.7644
135 1 -94.1699 2.76176 -95.7644
137 1 -90.9809 2.76176 -95.7644
139 1 -87.7919 2.76176 -95.7644
141 1 -84.6029 2.76176 -95.7644
143 1 -81.4139 2.76176 -95.7644
145 1 -78.2249 2.76176 -95.7644
147 1 -75.0359 2.76176 -95.7644
149 1 -71.8469 2.76176 -95.7644
151 1 -68.6579 2.76176 -95.7644
153 1 -65.4689 2.76176 -95.7644
155 1 -62.2799 2.76176 -95.7644
157 1 -59.0909 2.76176 -95.7644
159 1 -55.9019 2.76176 -95.7644
161 1 -52.7129 2.76176 -95.7644
163 1 -49.5239 2.76176 -95.7644
165 1 -46.3349 2.76176 -95.7644
167 1 -43.1459 2.76176 -95.7644
169 1 -39.9569 2.76176 -95.7644
171 1 -36.7679 2.76176 -95.7644
173 1 -33.5789 2.76176 -95.7644
175 1 -30.3899 2.76176 -95.7644
177 1 -27.2009 2.76176 -95.7644
179 1 -24.0119 2.76176 -95.7644
181 1 -20.8229 2.76176 -95.7644
183 1 -17.6339 2.76176 -95.7644
185 1 -14.4449 2.76176 -95.7644
187 1 -11.2559 2.76176 -95.7644
189 1 -8.06688 2.76176 -95.7644
191 1 -4.87788 2.76176 -95.7644
193 1 -1.68888 2.76176 -95.7644
195 1 1.50012 2.76176 -95.7644
197 1 4.68912 2.76176 -95.7644
199 1 7.87812 2.76176 -95.7644
201 1 11.0671 2.76176 -95.7644
203 1 14.2561 2.76176 -95.7644
205 1 17.4451 2.76176 -95.7644
207 1 20.6341 2.76176 -95.7644
209 1 23.8231 2.76176 -95.7644
211 1 27.0121 2.76176 -95.7644
213 1 30.2011 2.76176 -95.7644
215 1 33.3901 2.76176 -95.7644
217 1 36.5791 2.76176 -95.7644
219 1 39.7681 2.76176 -95.7644
221 1 42.9571 2.76176 -95.7644
223 1 46.1461 2.76176 -95.7644
225 1 49.3351 2.76176 -95.7644
227 1 52.5241 2.76176 -95.7644
229 1 55.7131 2.76176 -95.7644
231 1 58.9021 2.76176 -95.7644
233 1 62.0911 2.76176 -95.7644
235 1 65.2801 2.76176 -95.7644
237 1 68.4691 2.76176 -95.7644
239 1 71.6581 2.76176 -95.7644
241 1 74.8471 2.76176 -95.7644
243 1 78.0361 2.76176 -95.7644
245 1 81.2251 2.76176 -95.7644
247 1 84.4141 2.76176 -95.7644
249 1 87.6031 2.76176 -95.7644
251 1 90.7921 2.76176 -95.7644
253 1 93.9811 2.76176 -95.7644
255 1 97.1701 2.76176 -95.7644
257 1 100.359 2.76176 -95.7644
259 1 103.548 2.76176 -95.7644
261 1 106.737 2.76176 -95.7644
263 1 109.926 2.76176 -95.7644
265 1 113.115 2.76176 -95.7644
266 1 -95.7644 5.52351 -95.7644
268 1 -92.5754 5.52351 -95.7644
270 1 -89.3864 5.52351 -95.7644
272 1 -86.1974 5.52351 -95.7644
274 1 -83.0084 5.52351 -95.7644
276 1 -79.8194 5.52351 -95.7644
278 1 -76.6304 5.52351 -95.7644
280 1 -73.4414 5.52351 -95.7644
282 1 -70.2524 5.52351 -95.7644
284 1 -67.0634 5.52351 -95.7644
286 1 -63.8744 5.52351 -95.7644
288 1 -60.6854 5.52351 -95.7644
290 1 -57.4964 5.52351 -95.7644
292 1 -54.3074 5.52351 -95.7644
294 1 -51.1184 5.52351 -95.7644
296 1 -47.9294 5.52351 -95.7644
298 1 -44.7404 5.52351 -95.7644
300 1 -41.5514 5.52351 -95.7644
302 1 -38.3624 5.52351 -95.7644
304 1 -35.1734 5.52351 -95.7644
306 1 -31.9844 5.52351 -95.7644
308 1 -28.7954 5.52351 -95.7644
310 1 -25.6064 5.52351 -95.7644
312 1 -22.4174 5.52351 -95.7644
314 1 -19.2284 5.52351 -95.7644
316 1 -16.0394 5.52351 -95.7644
318 1 -12.8504 5.52351 -95.7644
320 1 -9.66138 5.52351 -95.7644
322 1 -6.47238 5.52351 -95.7644
324 1 -3.28338 5.52351 -95.7644
326 1 -0.0943844 5.52351 -95.7644
328 1 3.09462 5.52351 -95.7644
330 1 6.28362 5.52351 -95.7644
332 1 9.47262 5.52351 -95.7644
334 1 12.6616 5.52351 -95.7644
336 1 15.8506 5.52351 -95.7644
338 1 19.0396 5.52351 -95.7644
340 1 22.2286 5.52351 -95.7644
342 1 25.4176 5.52351 -95.7644
344 1 28.6066 5.52351 -95.7644
346 1 31.7956 5.52351 -95.7644
348 1 34.9846 5.52351 -95.7644
350 1 38.1736 5.52351 -95.7644
352 1 41.3626 5.52351 -95.7644
354 1 44.5516 5.52351 -95.7644
356 1 47.7406 5.52351 -95.7644
358 1 50.9296 5.52351 -95.7644
360 1 54.1186 5.52351 -95.7644
362 1 57.3076 5.52351 -95.7644
364 1 60.4966 5.52351 -95.7644
366 1 63.6856 5.52351 -95.7644
368 1 66.8746 5.52351 -95.7644
370 1 70.0636 5.52351 -95.7644
372 1 73.2526 5.52351 -95.7644
374 1 76.4416 5.52351 -95.7644
376 1 79.6306 5.52351 -95.7644
378 1 82.8196 5.52351 -95.7644
380 1 86.0086 5.52351 -95.7644
382 1 89.1976 5.52351 -95.7644
384 1 92.3866 5.52351 -95.7644
386 1 95.5756 5.52351 -95.7644
388 1 98.7646 5.52351 -95.7644
390 1 101.954 5.52351 -95.7644
392 1 105.143 5.52351 -95.7644
394 1 108.332 5.52351 -95.7644
396 1 111.521 5.52351 -95.7644
398 1 114.71 5.52351 -95.7644
400 1 -94.1699 8.28527 -95.7644
402 1 -90.9809 8.28527 -95.7644
404 1 -87.7919 8.28527 -95.7644
406 1 -84.6029 8.28527 -95.7644
408 1 -81.4139 8.28527 -95.7644
410 1 -78.2249 8.28527 -95.7644
412 1 -75.0359 8.28527 -95.7644
414 1 -71.8469 8.28527 -95.7644
416 1 -68.6579 8.28527 -95.7644
418 1 -65.4689 8.28527 -95.7644
420 1 -62.2799 8.28527 -95.7644
422 1 -59.0909 8.28527 -95.7644
424 1 -55.9019 8.28527 -95.7644
426 1 -52.7129 8.28527 -95.7644
428 1 -49.5239 8.28527 -95.7644
430 1 -46.3349 8.28527 -95.7644
432 1 -43.1459 8.28527 -95.7644
434 1 -39.9569 8.28527 -95.7644
436 1 -36.7679 8.28527 -95.7644
438 1 -33.5789 8.28527 -95.7644
440 1 -30.3899 8.28527 -95.7644
442 1 -27.2009 8.28527 -95.7644
444 1 -24.0119 8.28527 -95.7644
446 1 -20.8229 8.28527 -95.7644
448 1 -17.6339 8.28527 -95.7644
450 1 -14.4449 8.28527 -95.7644
452 1 -11.2559 8.28527 -95.7644
454 1 -8.06688 8.28527 -95.7644
456 1 -4.87788 8.28527 -95.7644
458 1 -1.68888 8.28527 -95.7644
460 1 1.50012 8.28527 -95.7644
462 1 4.68912 8.28527 -95.7644
464 1 7.87812 8.28527 -95.7644
466 1 11.0671 8.28527 -95.7644
468 1 14.2561 8.28527 -95.7644
470 1 17.4451 8.28527 -95.7644
472 1 20.6341 8.28527 -95.7644
474 1 23.8231 8.28527 -95.7644
476 1 27.0121 8.28527 -95.7644
478 1 30.2011 8.28527 -95.7644
480 1 33.3901 8.28527 -95.7644
482 1 36.5791 8.28527 -95.7644
484 1 39.7681 8.28527 -95.7644
486 1 42.9571 8.28527 -95.7644
488 1 46.1461 8.28527 -95.7644
490 1 49.3351 8.28527 -95.7644
492 1 52.5241 8.28527 -95.7644
494 1 55.7131 8.28527 -95.7644
496 1 58.9021 8.28527 -95.7644
498 1 62.0911 8.28527 -95.7644
500 1 65.2801 8.28527 -95.7644
502 1 68.4691 8.28527 -95.7644
504 1 71.6581 8.28527 -95.7644
506 1 74.8471 8.28527 -95.7644
508 1 78.0361 8.28527 -95.7644
510 1 81.2251 8.28527 -95.7644
512 1 84.4141 8.28527 -95.7644
514 1 87.6031 8.28527 -95.7644
516 1 90.7921 8.28527 -95.7644
518 1 93.9811 8.28527 -95.7644
520 1 97.1701 8.28527 -95.7644
522 1 100.359 8.28527 -95.7644
524 1 103.548 8.28527 -95.7644
526 1 106.737 8.28527 -95.7644
528 1 109.926 8.28527 -95.7644
530 1 113.115 8.28527 -95.7644
531 1 -95.7644 11.047 -95.7644
533 1 -92.5754 11.047 -95.7644
535 1 -89.3864 11.047 -95.7644
537 1 -86.1974 11.047 -95.7644
539 1 -83.0084 11.047 -95.7644
541 1 -79.8194 11.047 -95.7644
543 1 -76.6304 11.047 -95.7644
545 1 -73.4414 11.047 -95.7644
547 1 -70.2524 11.047 -95.7644
549 1 -67.0634 11.047 -95.7644
551 1 -63.8744 11.047 -95.7644
553 1 -60.6854 11.047 -95.7644
555 1 -57.4964 11.047 -95.7644
557 1 -54.3074 11.047 -95.7644
559 1 -51.1184 11.047 -95.7644
561 1 -47.9294 11.047 -95.7644
563 1 -44.7404 11.047 -95.7644
565 1 -41.5514 11.047 -95.7644
567 1 -38.3624 11.047 -95.7644
569 1 -35.1734 11.047 -95.7644
571 1 -31.9844 11.047 -95.7644
573 1 -28.7954 11.047 -95.7644
575 1 -25.6064 11.047 -95.7644
577 1 -22.4174 11.047 -95.7644
579 1 -19.2284 11.047 -95.7644
581 1 -16.0394 11.047 -95.7644
583 1 -12.8504 11.047 -95.7644
585 1 -9.66138 11.047 -95.7644
587 1 -6.47238 11.047 -95.7644
589 1 -3.28338 11.047 -95.7644
591 1 -0.0943844 11.047 -95.7644
593 1 3.09462 11.047 -95.7644
595 1 6.28362 11.047 -95.7644
597 1 9.47262 11.047 -95.7644
599 1 12.6616 11.047 -95.7644
601 1 15.8506 11.047 -95.7644
603 1 19.0396 11.047 -95.7644
605 1 22.2286 11.047 -95.7644
607 1 25.4176 11.047 -95.7644
609 1 28.6066 11.047 -95.7644
611 1 31.7956 11.047 -95.7644
613 1 34.9846 11.047 -95.7644
615 1 38.1736 11.047 -95.7644
617 1 41.3626 11.047 -95.7644
619 1 44.5516 11.047 -95.7644
621 1 47.7406 11.047 -95.7644
623 1 50.9296 11.047 -95.7644
625 1 54.1186 11.047 -95.7644
627 1 57.3076 11.047 -95.7644
629 1 60.4966 11.047 -95.7644
631 1 63.6856 11.047 -95.7644
633 1 66.8746 11.047 -95.7644
635 1 70.0636 11.047 -95.7644
637 1 73.2526 11.047 -95.7644
639 1 76.4416 11.047 -95.7644
641 1 79.6306 11.047 -95.7644
643 1 82.8196 11.047 -95.7644
645 1 86.0086 11.047 -95.7644
647 1 89.1976 11.047 -95.7644
649 1 92.3866 11.047 -95.7644
651 1 95.5756 11.047 -95.7644
653 1 98.7646 11.047 -95.7644
655 1 101.954 11.047 -95.7644
657 1 105.143 11.047 -95.7644
659 1 108.332 11.047 -95.7644
661 1 111.521 11.047 -95.7644
663 1 114.71 11.047 -95.7644
665 1 -94.1699 13.8088 -95.7644
667 1 -90.9809 13.8088 -95.7644
669 1 -87.7919 13.8088 -95.7644
671 1 -84.6029 13.8088 -95.7644
673 1 -81.4139 13.8088 -95.7644
675 1 -78.2249 13.8088 -95.7644
677 1 -75.0359 13.8088 -95.7644
679 1 -71.8469 13.8088 -95.7644
681 1 -68.6579 13.8088 -95.7644
683 1 -65.4689 13.8088 -95.7644
685 1 -62.2799 13.8088 -95.7644
687 1 -59.0909 13.8088 -95.7644
689 1 -55.9019 13.8088 -95.7644
691 1 -52.7129 13.8088 -95.7644
693 1 -49.5239 13.8088 -95.7644
695 1 -46.3349 13.8088 -95.7644
697 1 -43.1459 13.8088 -95.7644
699 1 -39.9569 13.8088 -95.7644
701 1 -36.7679 13.8088 -95.7644
703 1 -33.5789 13.8088 -95.7644
705 1 -30.3899 13.8088 -95.7644
707 1 -27.2009 13.8088 -95.7644
709 1 -24.0119 13.8088 -95.7644
711 1 -20.8229 13.8088 -95.7644
713 1 -17.6339 13.8088 -95.7644
715 1 -14.4449 13.8088 -95.7644
717 1 -11.2559 13.8088 -95.7644
719 1 -8.06688 13.8088 -95.7644
721 1 -4.87788 13.8088 -95.7644
723 1 -1.68888 13.8088 -95.7644
725 1 1.50012 13.8088 -95.7644
727 1 4.68912 13.8088 -95.7644
729 1 7.87812 13.8088 -95.7644
731 1 11.0671 13.8088 -95.7644
733 1 14.2561 13.8088 -95.7644
735 1 17.4451 13.8088 -95.7644
737 1 20.6341 13.8088 -95.7644
739 1 23.8231 13.8088 -95.7644
741 1 27.0121 13.8088 -95.7644
743 1 30.2011 13.8088 -95.7644
745 1 33.3901 13.8088 -95.7644
747 1 36.5791 13.8088 -95.7644
749 1 39.7681 13.8088 -95.7644
751 1 42.9571 13.8088 -95.7644
753 1 46.1461 13.8088 -95.7644
755 1 49.3351 13.8088 -95.7644
757 1 52.5241 13.8088 -95.7644
759 1 55.7131 13.8088 -95.7644
761 1 58.9021 13.8088 -95.7644
763 1 62.0911 13.8088 -95.7644
765 1 65.2801 13.8088 -95.7644
767 1 68.4691 13.8088 -95.7644
769 1 71.6581 13.8088 -95.7644
771 1 74.8471 13.8088 -95.7644
773 1 78.0361 13.8088 -95.7644
775 1 81.2251 13.8088 -95.7644
777 1 84.4141 13.8088 -95.7644
779 1 87.6031 13.8088 -95.7644
781 1 90.7921 13.8088 -95.7644
783 1 93.9811 13.8088 -95.7644
785 1 97.1701 13.8088 -95.7644
787 1 100.359 13.8088 -95.7644
789 1 103.548 13.8088 -95.7644
791 1 106.737 13.8088 -95.7644
793 1 109.926 13.8088 -95.7644
795 1 113.115 13.8088 -95.7644
796 1 -95.7644 16.5705 -95.7644
798 1 -92.5754 16.5705 -95.7644
800 1 -89.3864 16.5705 -95.7644
802 1 -86.1974 16.5705 -95.7644
804 1 -83.0084 16.5705 -95.7644
806 1 -79.8194 16.5705 -95.7644
808 1 -76.6304 16.5705 -95.7644
810 1 -73.4414 16.5705 -95.7644
812 1 -70.2524 16.5705 -95.7644
814 1 -67.0634 16.5705 -95.7644
816 1 -63.8744 16.5705 -95.7644
818 1 -60.6854 16.5705 -95.7644
820 1 -57.4964 16.5705 -95.7644
822 1 -54.3074 16.5705 -95.7644
824 1 -51.1184 16.5705 -95.7644
826 1 -47.9294 16.5705 -95.7644
828 1 -44.7404 16.5705 -95.7644
830 1 -41.5514 16.5705 -95.7644
832 1 -38.3624 16.5705 -95.7644
834 1 -35.1734 16.5705 -95.7644
836 1 -31.9844 16.5705 -95.7644
838 1 -28.7954 16.5705 -95.7644
840 1 -25.6064 16.5705 -95.7644
842 1 -22.4174 16.5705 -95.7644
844 1 -19.2284 16.5705 -95.7644
846 1 -16.0394 16.5705 -95.7644
848 1 -12.8504 16.5705 -95.7644
850 1 -9.66138 16.5705 -95.7644
852 1 -6.47238 16.5705 -95.7644
854 1 -3.28338 16.5705 -95.7644
856 1 -0.0943844 16.5705 -95.7644
858 1 3.09462 16.5705 -95.7644
860 1 6.28362 16.5705 -95.7644
862 1 9.47262 16.5705 -95.7644
864 1 12.6616 16.5705 -95.7644
866 1 15.8506 16.5705 -95.7644
868 1 19.0396 16.5705 -95.7644
870 1 22.2286 16.5705 -95.7644
872 1 25.4176 16.5705 -95.7644
874 1 28.6066 16.5705 -95.7644
876 1 31.7956 16.5705 -95.7644
878 1 34.9846 16.5705 -95.7644
880 1 38.1736 16.5705 -95.7644
882 1 41.3626 16.5705 -95.7644
884 1 44.5516 16.5705 -95.7644
886 1 47.7406 16.5705 -95.7644
888 1 50.9296 16.5705 -95.7644
890 1 54.1186 16.5705 -95.7644
892 1 57.3076 16.5705 -95.7644
894 1 60.4966 16.5705 -95.7644
896 1 63.6856 16.5705 -95.7644
898 1 66.8746 16.5705 -95.7644
900 1 70.0636 16.5705 -95.7644
902 1 73.2526 16.5705 -95.7644
904 1 76.4416 16.5705 -95.7644
906 1 79.6306 16.5705 -95.7644
908 1 82.8196 16.5705 -95.7644
910 1 86.0086 16.5705 -95.7644
912 1 89.1976 16.5705 -95.7644
914 1 92.3866 16.5705 -95.7644
916 1 95.5756 16.5705 -95.7644
918 1 98.7646 16.5705 -95.7644
920 1 101.954 16.5705 -95.7644
922 1 105.143 16.5705 -95.7644
924 1 108.332 16.5705 -95.7644
926 1 111.521 16.5705 -95.7644
928 1 114.71 16.5705 -95.7644
930 1 -94.1699 19.3323 -95.7644
932 1 -90.9809 19.3323 -95.7644
934 1 -87.7919 19.3323 -95.7644
936 1 -84.6029 19.3323 -95.7644
938 1 -81.4139 19.3323 -95.7644
940 1 -78.2249 19.3323 -95.7644
942 1 -75.0359 19.3323 -95.7644
944 1 -71.8469 19.3323 -95.7644
946 1 -68.6579 19.3323 -95.7644
948 1 -65.4689 19.3323 -95.7644
950 1 -62.2799 19.3323 -95.7644
952 1 -59.0909 19.3323 -95.7644
954 1 -55.9019 19.3323 -95.7644
956 1 -52.7129 19.3323 -95.7644
958 1 -49.5239 19.3323 -95.7644
960 1 -46.3349 19.3323 -95.7644
962 1 -43.1459 19.3323 -95.7644
964 1 -39.9569 19.3323 -95.7644
966 1 -36.7679 19.3323 -95.7644
968 1 -33.5789 19.3323 -95.7644
970 1 -30.3899 19.3323 -95.7644
972 1 -27.2009 19.3323 -95.7644
974 1 -24.0119 19.3323 -95.7644
976 1 -20.8229 19.3323 -95.7644
978 1 -17.6339 19.3323 -95.7644
980 1 -14.4449 19.3323 -95.7644
982 1 -11.2559 19.3323 -95.7644
984 1 -8.06688 19.3323 -95.7644
986 1 -4.87788 19.3323 -95.7644
988 1 -1.68888 19.3323 -95.7644
990 1 1.50012 19.3323 -95.7644
992 1 4.68912 19.3323 -95.7644
994 1 7.87812 19.3323 -95.7644
996 1 11.0671 19.3323 -95.7644
998 1 14.2561 19.3323 -95.7644
1000 1 17.4451 19.3323 -95.7644
1002 1 20.6341 19.3323 -95.7644
1004 1 23.8231 19.3323 -95.7644
1006 1 27.0121 19.3323 -95.7644
1008 1 30.2011 19.3323 -95.7644
1010 1 33.3901 19.3323 -95.7644
1012 1 36.5791 19.3323 -95.7644
1014 1 39.7681 19.3323 -95.7644
1016 1 42.9571 19.3323 -95.7644
1018 1 46.1461 19.3323 -95.7644
1020 1 49.3351 19.3323 -95.7644
1022 1 52.5241 19.3323 -95.7644
1024 1 55.7131 19.3323 -95.7644
1026 1 58.9021 19.3323 -95.7644
1028 1 62.0911 19.3323 -95.7644
1030 1 65.2801 19.3323 -95.7644
1032 1 68.4691 19.3323 -95.7644
1034 1 71.6581 19.3323 -95.7644
1036 1 74.8471 19.3323 -95.7644
1038 1 78.0361 19.3323 -95.7644
1040 1 81.2251 19.3323 -95.7644
1042 1 84.4141 19.3323 -95.7644
1044 1 87.6031 19.3323 -95.7644
1046 1 90.7921 19.3323 -95.7644
1048 1 93.9811 19.3323 -95.7644
1050 1 97.1701 19.3323 -95.7644
1052 1 100.359 19.3323 -95.7644
1054 1 103.548 19.3323 -95.7644
1056 1 106.737 19.3323 -95.7644
1058 1 109.926 19.3323 -95.7644
1060 1 113.115 19.3323 -95.7644
1061 1 -95.7644 22.094 -95.7644
1063 1 -92.5754 22.094 -95.7644
1065 1 -89.3864 22.094 -95.7644
1067 1 -86.1974 22.094 -95.7644
1069 1 -83.0084 22.094 -95.7644
1071 1 -79.8194 22.094 -95.7644
1073 1 -76.6304 22.094 -95.7644
1075 1 -73.4414 22.094 -95.7644
1077 1 -70.2524 22.094 -95.7644
1079 1 -67.0634 22.094 -95.7644
1081 1 -63.8744 22.094 -95.7644
1083 1 -60.6854 22.094 -95.7644
1085 1 -57.4964 22.094 -95.7644
1087 1 -54.3074 22.094 -95.7644
1089 1 -51.1184 22.094 -95.7644
1091 1 -47.9294 22.094 -95.7644
1093 1 -44.7404 22.094 -95.7644
1095 1 -41.5514 22.094 -95.7644
1097 1 -38.3624 22.094 -95.7644
1099 1 -35.1734 22.094 -95.7644
1101 1 -31.9844 22.094 -95.7644
1103 1 -28.7954 22.094 -95.7644
1105 1 -25.6064 22.094 -95.7644
1107 1 -22.4174 22.094 -95.7644
1109 1 -19.2284 22.094 -95.7644
1111 1 -16.0394 22.094 -95.7644
1113 1 -12.8504 22.094 -95.7644
1115 1 -9.66138 22.094 -95.7644
1117 1 -6.47238 22.094 -95.7644
1119 1 -3.28338 22.094 -95.7644
1121 1 -0.0943844 22.094 -95.7644
1123 1 3.09462 22.094 -95.7644
1125 1 6.28362 22.094 -95.7644
1127 1 9.47262 22.094 -95.7644
1129 1 12.6616 22.094 -95.7644
1131 1 15.8506 22.094 -95.7644
1133 1 19.0396 22.094 -95.7644
1135 1 22.2286 22.094 -95.7644
1137 1 25.4176 22.094 -95.7644
1139 1 28.6066 22.094 -95.7644
1141 1 31.7956 22.094 -95.7644
1143 1 34.9846 22.094 -95.7644
1145 1 38.1736 22.094 -95.7644
1147 1 41.3626 22.094 -95.7644
1149 1 44.5516 22.094 -95.7644
1151 1 47.7406 22.094 -95.7644
1153 1 50.9296 22.094 -95.7644
1155 1 54.1186 22.094 -95.7644
1157 1 57.3076 22.094 -95.7644
1159 1 60.4966 22.094 -95.7644
1161 1 63.6856 22.094 -95.7644
1163 1 66.8746 22.094 -95.7644
1165 1 70.0636 22.094 -95.7644
1167 1 73.2526 22.094 -95.7644
1169 1 76.4416 22.094 -95.7644
1171 1 79.6306 22.094 -95.7644
1173 1 82.8196 22.094 -95.7644
1175 1 86.0086 22.094 -95.7644
1177 1 89.1976 22.094 -95.7644
1179 1 92.3866 22.094 -95.7644
1181 1 95.5756 22.094 -95.7644
1183 1 98.7646 22.094 -95.7644
1185 1 101.954 22.094 -95.7644
1187 1 105.143 22.094 -95.7644
1189 1 108.332 22.094 -95.7644
1191 1 111.521 22.094 -95.7644
1193 1 114.71 22.094 -95.7644
1195 1 -94.1699 24.8558 -95.7644
1197 1 -90.9809 24.8558 -95.7644
1199 1 -87.7919 24.8558 -95.7644
1201 1 -84.6029 24.8558 -95.7644
1203 1 -81.4139 24.8558 -95.7644
1205 1 -78.2249 24.8558 -95.7644
1207 1 -75.0359 24.8558 -95.7644
1209 1 -71.8469 24.8558 -95.7644
1211 1 -68.6579 24.8558 -95.7644
1213 1 -65.4689 24.8558 -95.7644
1215 1 -62.2799 24.8558 -95.7644
1217 1 -59.0909 24.8558 -95.7644
1219 1 -55.9019 24.8558 -95.7644
1221 1 -52.7129 24.8558 -95.7644
1223 1 -49.5239 24.8558 -95.7644
1225 1 -46.3349 24.8558 -95.7644
1227 1 -43.1459 24.8558 -95.7644
1229 1 -39.9569 24.8558 -95.7644
1231 1 -36.7679 24.8558 -95.7644
1233 1 -33.5789 24.8558 -95.7644
1235 1 -30.3899 24.8558 -95.7644
1237 1 -27.2009 24.8558 -95.7644
1239 1 -24.0119 24.8558 -95.7644
1241 1 -20.8229 24.8558 -95.7644
1243 1 -17.6339 24.8558 -95.7644
1245 1 -14.4449 24.8558 -95.7644
1247 1 -11.2559 24.8558 -95.7644
1249 1 -8.06688 24.8558 -95.7644
1251 1 -4.87788 24.8558 -95.7644
1253 1 -1.68888 24.8558 -95.7644
1255 1 1.50012 24.8558 -95.7644
1257 1 4.68912 24.8558 -95.7644
1259 1 7.87812 24.8558 -95.7644
1261 1 11.0671 24.8558 -95.7644
1263 1 14.2561 24.8558 -95.7644
1265 1 17.4451 24.8558 -95.7644
1267 1 20.6341 24.8558 -95.7644
1269 1 23.8231 24.8558 -95.7644
1271 1 27.0121 24.8558 -95.7644
1273 1 30.2011 24.8558 -95.7644
1275 1 33.3901 24.8558 -95.7644
1277 1 36.5791 24.8558 -95.7644
1279 1 39.7681 24.8558 -95.7644
1281 1 42.9571 24.8558 -95.7644
1283 1 46.1461 24.8558 -95.7644
1285 1 49.3351 24.8558 -95.7644
1287 1 52.5241 24.8558 -95.7644
1289 1 55.7131 24.8558 -95.7644
1291 1 58.9021 24.8558 -95.7644
1293 1 62.0911 24.8558 -95.7644
1295 1 65.2801 24.8558 -95.7644
1297 1 68.4691 24.8558 -95.7644
1299 1 71.6581 24.8558 -95.7644
1301 1 74.8471 24.8558 -95.7644
1303 1 78.0361 24.8558 -95.7644
1305 1 81.2251 24.8558 -95.7644
1307 1 84.4141 24.8558 -95.7644
1309 1 87.6031 24.8558 -95.7644
1311 1 90.7921 24.8558 -95.7644
1313 1 93.9811 24.8558 -95.7644
1315 1 97.1701 24.8558 -95.7644
1317 1 100.359 24.8558 -95.7644
1319 1 103.548 24.8558 -95.7644
1321 1 106.737 24.8558 -95.7644
1323 1 109.926 24.8558 -95.7644
1325 1 113.115 24.8558 -95.7644
1326 1 -95.7644 27.6176 -95.7644
1328 1 -92.5754 27.6176 -95.7644
1330 1 -89.3864 27.6176 -95.7644
1332 1 -86.1974 27.6176 -95.7644
1334 1 -83.0084 27.6176 -95.7644
1336 1 -79.8194 27.6176 -95.7644
1338 1 -76.6304 27.6176 -95.7644
1340 1 -73.4414 27.6176 -95.7644
1342 1 -70.2524 27.6176 -95.7644
1344 1 -67.0634 27.6176 -95.7644
1346 1 -63.8744 27.6176 -95.7644
1348 1 -60.6854 27.6176 -95.7644
1350 1 -57.4964 27.6176 -95.7644
1352 1 -54.3074 27.6176 -95.7644
1354 1 -51.1184 27.6176 -95.7644
1356 1 -47.9294 27.6176 -95.7644
1358 1 -44.7404 27.6176 -95.7644
1360 1 -41.5514 27.6176 -95.7644
1362 1 -38.3624 27.6176 -95.7644
1364 1 -35.1734 27.6176 -95.7644
1366 1 -31.9844 27.6176 -95.7644
1368 1 -28.7954 27.6176 -95.7644
1370 1 -25.6064 27.6176 -95.7644
1372 1 -22.4174 27.6176 -95.7644
1374 1 -19.2284 27.6176 -95.7644
1376 1 -16.0394 27.6176 -95.7644
1378 1 -12.8504 27.6176 -95.7644
1380 1 -9.66138 27.6176 -95.7644
1382 1 -6.47238 27.6176 -95.7644
1384 1 -3.28338 27.6176 -95.7644
1386 1 -0.0943844 27.6176 -95.7644
1388 1 3.09462 27.6176 -95.7644
1390 1 6.28362 27.6176 -95.7644
1392 1 9.47262 27.6176 -95.7644
1394 1 12.6616 27.6176 -95.7644
1396 1 15.8506 27.6176 -95.7644
1398 1 19.0396 27.6176 -95.7644
1400 1 22.2286 27.6176 -95.7644
1402 1 25.4176 27.6176 -95.7644
1404 1 28.6066 27.6176 -95.7644
1406 1 31.7956 27.6176 -95.7644
1408 1 34.9846 27.6176 -95.7644
1410 1 38.1736 27.6176 -95.7644
1412 1 41.3626 27.6176 -95.7644
1414 1 44.5516 27.6176 -95.7644
1416 1 47.7406 27.6176 -95.7644
1418 1 50.9296 27.6176 -95.7644
1420 1 54.1186 27.6176 -95.7644
1422 1 57.3076 27.6176 -95.7644
1424 1 60.4966 27.6176 -95.7644
1426 1 63.6856 27.6176 -95.7644
1428 1 66.8746 27.6176 -95.7644
1430 1 70.0636 27.6176 -95.7644
1432 1 73.2526 27.6176 -95.7644
1434 1 76.4416 27.6176 -95.7644
1436 1 79.6306 27.6176 -95.7644
1438 1 82.8196 27.6176 -95.7644
1440 1 86.0086 27.6176 -95.7644
1442 1 89.1976 27.6176 -95.7644
1444 1 92.3866 27.6176 -95.7644
1446 1 95.5756 27.6176 -95.7644
1448 1 98.7646 27.6176 -95.7644
1450 1 101.954 27.6176 -95.7644
1452 1 105.143 27.6176 -95.7644
1454 1 108.332 27.6176 -95.7644
1456 1 111.521 27.6176 -95.7644
1458 1 114.71 27.6176 -95.7644
1460 1 -94.1699 30.3793 -95.7644
1462 1 -90.9809 30.3793 -95.7644
1464 1 -87.7919 30.3793 -95.7644
1466 1 -84.6029 30.3793 -95.7644
1468 1 -81.4139 30.3793 -95.7644
1470 1 -78.2249 30.3793 -95.7644
1472 1 -75.0359 30.3793 -95.7644
1474 1 -71.8469 30.3793 -95.7644
1476 1 -68.6579 30.3793 -95.7644
1478 1 -65.4689 30.3793 -95.7644
1480 1 -62.2799 30.3793 -95.7644
1482 1 -59.0909 30.3793 -95.7644
1484 1 -55.9019 30.3793 -95.7644
1486 1 -52.7129 30.3793 -95.7644
1488 1 -49.5239 30.3793 -95.7644
1490 1 -46.3349 30.3793 -95.7644
1492 1 -43.1459 30.3793 -95.7644
1494 1 -39.9569 30.3793 -95.7644
1496 1 -36.7679 30.3793 -95.7644
1498 1 -33.5789 30.3793 -95.7644
1500 1 -30.3899 30.3793 -95.7644
1502 1 -27.2009 30.3793 -95.7644
1504 1 -24.0119 30.3793 -95.7644
1506 1 -20.8229 30.3793 -95.7644
1508 1 -17.6339 30.3793 -95.7644
1510 1 -14.4449 30.3793 -95.7644
1512 1 -11.2559 30.3793 -95.7644
1514 1 -8.06688 30.3793 -95.7644
1516 1 -4.87788 30.3793 -95.7644
1518 1 -1.68888 30.3793 -95.7644
1520 1 1.50012 30.3793 -95.7644
1522 1 4.68912 30.3793 -95.7644
1524 1 7.87812 30.3793 -95.7644
1526 1 11.0671 30.3793 -95.7644
1528 1 14.2561 30.3793 -95.7644
1530 1 17.4451 30.3793 -95.7644
1532 1 20.6341 30.3793 -95.7644
1534 1 23.8231 30.3793 -95.7644
1536 1 27.0121 30.3793 -95.7644
1538 1 30.2011 30.3793 -95.7644
1540 1 33.3901 30.3793 -95.7644
1542 1 36.5791 30.3793 -95.7644
1544 1 39.7681 30.3793 -95.7644
1546 1 42.9571 30.3793 -95.7644
1548 1 46.1461 30.3793 -95.7644
1550 1 49.3351 30.3793 -95.7644
1552 1 52.5241 30.3793 -95.7644
1554 1 55.7131 30.3793 -95.7644
1556 1 58.9021 30.3793 -95.7644
1558 1 62.0911 30.3793 -95.7644
1560 1 65.2801 30.3793 -95.7644
1562 1 68.4691 30.3793 -95.7644
1564 1 71.6581 30.3793 -95.7644
1566 1 74.8471 30.3793 -95.7644
1568 1 78.0361 30.3793 -95.7644
1570 1 81.2251 30.3793 -95.7644
1572 1 84.4141 30.3793 -95.7644
1574 1 87.6031 30.3793 -95.7644
1576 1 90.7921 30.3793 -95.7644
1578 1 93.9811 30.3793 -95.7644
1580 1 97.1701 30.3793 -95.7644
1582 1 100.359 30.3793 -95.7644
1584 1 103.548 30.3793 -95.7644
1586 1 106.737 30.3793 -95.7644
1588 1 109.926 30.3793 -95.7644
1590 1 113.115 30.3793 -95.7644
1591 1 -95.7644 33.1411 -95.7644
1592 1 -92.5754 33.1411 -95.7644
1593 1 -89.3864 33.1411 -95.7644
1594 1 -86.1974 33.1411 -95.7644
1595 1 -83.0084 33.1411 -95.7644
1596 1 -79.8194 33.1411 -95.7644
1597 1 -76.6304 33.1411 -95.7644
1598 1 -73.4414 33.1411 -95.7644
1599 1 -70.2524 33.1411 -95.7644
1600 1 -67.0634 33.1411 -95.7644
1601 1 -63.8744 33.1411 -95.7644
1602 1 -60.6854 33.1411 -95.7644
1603 1 -57.4964 33.1411 -95.7644
1604 1 -54.3074 33.1411 -95.7644
1605 1 -51.1184 33.1411 -95.7644
1606 1 -47.9294 33.1411 -95.7644
1607 1 -44.7404 33.1411 -95.7644
1608 1 -41.5514 33.1411 -95.7644
1609 1 -38.3624 33.1411 -95.7644
1610 1 -35.1734 33.1411 -95.7644
1611 1 -31.9844 33.1411 -95.7644
1612 1 -28.7954 33.1411 -95.7644
1613 1 -25.6064 33.1411 -95.7644
1614 1 -22.4174 33.1411 -95.7644
1615 1 -19.2284 33.1411 -95.7644
1616 1 -16.0394 33.1411 -95.7644
1617 1 -12.8504 33.1411 -95.7644
1618 1 -9.66138 33.1411 -95.7644
1619 1 -6.47238 33.1411 -95.7644
1620 1 -3.28338 33.1411 -95.7644
1621 1 -0.0943844 33.1411 -95.7644
1622 1 3.09462 33.1411 -95.7644
1623 1 6.28362 33.1411 -95.7644
1624 1 9.47262 33.1411 -95.7644
1625 1 12.6616 33.1411 -95.7644
1626 1 15.8506 33.1411 -95.7644
1627 1 19.0396 33.1411 -95.7644
1628 1 22.2286 33.1411 -95.7644
1629 1 25.4176 33.1411 -95.7644
1630 1 28.6066 33.1411 -95.7644
1631 1 31.7956 33.1411 -95.7644
1632 1 34.9846 33.1411 -95.7644
1633 1 38.1736 33.1411 -95.7644
1634 1 41.3626 33.1411 -95.7644
1635 1 44.5516 33.1411 -95.7644
1636 1 47.7406 33.1411 -95.7644
1637 1 50.9296 33.1411 -95.7644
1638 1 54.1186 33.1411 -95.7644
1639 1 57.3076 33.1411 -95.7644
1640 1 60.4966 33.1411 -95.7644
1641 1 63.6856 33.1411 -95.7644
1642 1 66.8746 33.1411 -95.7644
1643 1 70.0636 33.1411 -95.7644
1644 1 73.2526 33.1411 -95.7644
1645 1 76.4416 33.1411 -95.7644
1646 1 79.6306 33.1411 -95.7644
1647 1 82.8196 33.1411 -95.7644
1648 1 86.0086 33.1411 -95.7644
1649 1 89.1976 33.1411 -95.7644
1650 1 92.3866 33.1411 -95.7644
1651 1 95.5756 33.1411 -95.7644
1652 1 98.7646 33.1411 -95.7644
1653 1 101.954 33.1411 -95.7644
1654 1 105.143 33.1411 -95.7644
1655 1 108.332 33.1411 -95.7644
1656 1 111.521 33.1411 -95.7644
1657 1 114.71 33.1411 -95.7644
2 1 -94.2019 1.01668 -87.4797
4 1 -91.0129 1.01668 -87.4797
6 1 -87.8239 1.01668 -87.4797
8 1 -84.6349 1.01668 -87.4797
10 1 -81.4459 1.01668 -87.4797
12 1 -78.2569 1.01668 -87.4797
14 1 -75.0679 1.01668 -87.4797
16 1 -71.8789 1.01668 -87.4797
18 1 -68.6899 1.01668 -87.4797
20 1 -65.5009 1.01668 -87.4797
22 1 -62.3119 1.01668 -87.4797
24 1 -59.1229 1.01668 -87.4797
26 1 -55.9339 1.01668 -87.4797
28 1 -52.7449 1.01668 -87.4797
30 1 -49.5559 1.01668 -87.4797
32 1 -46.3669 1.01668 -87.4797
34 1 -43.1779 1.01668 -87.4797
36 1 -39.9889 1.01668 -87.4797
38 1 -36.7999 1.01668 -87.4797
40 1 -33.6109 1.01668 -87.4797
42 1 -30.4219 1.01668 -87.4797
44 1 -27.2329 1.01668 -87.4797
46 1 -24.0439 1.01668 -87.4797
48 1 -20.8549 1.01668 -87.4797
50 1 -17.6659 1.01668 -87.4797
52 1 -14.4769 1.01668 -87.4797
54 1 -11.2879 1.01668 -87.4797
56 1 -8.09888 1.01668 -87.4797
58 1 -4.90988 1.01668 -87.4797
60 1 -1.72088 1.01668 -87.4797
62 1 1.46812 1.01668 -87.4797
64 1 4.65712 1.01668 -87.4797
66 1 7.84612 1.01668 -87.4797
68 1 11.0351 1.01668 -87.4797
70 1 14.2241 1.01668 -87.4797
72 1 17.4131 1.01668 -87.4797
74 1 20.6021 1.01668 -87.4797
76 1 23.7911 1.01668 -87.4797
78 1 26.9801 1.01668 -87.4797
80 1 30.1691 1.01668 -87.4797
82 1 33.3581 1.01668 -87.4797
84 1 36.5471 1.01668 -87.4797
86 1 39.7361 1.01668 -87.4797
88 1 42.9251 1.01668 -87.4797
90 1 46.1141 1.01668 -87.4797
92 1 49.3031 1.01668 -87.4797
94 1 52.4921 1.01668 -87.4797
96 1 55.6811 1.01668 -87.4797
98 1 58.8701 1.01668 -87.4797
100 1 62.0591 1.01668 -87.4797
102 1 65.2481 1.01668 -87.4797
104 1 68.4371 1.01668 -87.4797
106 1 71.6261 1.01668 -87.4797
108 1 74.8151 1.01668 -87.4797
110 1 78.0041 1.01668 -87.4797
112 1 81.1931 1.01668 -87.4797
114 1 84.3821 1.01668 -87.4797
116 1 87.5711 1.01668 -87.4797
118 1 90.7601 1.01668 -87.4797
120 1 93.9491 1.01668 -87.4797
122 1 97.1381 1.01668 -87.4797
124 1 100.327 1.01668 -87.4797
126 1 103.516 1.01668 -87.4797
128 1 106.705 1.01668 -87.4797
130 1 109.894 1.01668 -87.4797
132 1 113.083 1.01668 -87.4797
134 1 -95.7642 3.68225 -87.4969
136 1 -92.6074 3.77843 -87.4797
138 1 -89.4184 3.77843 -87.4797
140 1 -86.2294 3.77843 -87.4797
142 1 -83.0404 3.77843 -87.4797
144 1 -79.8514 3.77843 -87.4797
146 1 -76.6624 3.77843 -87.4797
148 1 -73.4734 3.77843 -87.4797
150 1 -70.2844 3.77843 -87.4797
152 1 -67.0954 3.77843 -87.4797
154 1 -63.9064 3.77843 -87.4797
156 1 -60.7174 3.77843 -87.4797
158 1 -57.5284 3.77843 -87.4797
160 1 -54.3394 3.77843 -87.4797
162 1 -51.1504 3.77843 -87.4797
164 1 -47.9614 3.77843 -87.4797
166 1 -44.7724 3.77843 -87.4797
168 1 -41.5834 3.77843 -87.4797
170 1 -38.3944 3.77843 -87.4797
172 1 -35.2054 3.77843 -87.4797
174 1 -32.0164 3.77843 -87.4797
176 1 -28.8274 3.77843 -87.4797
178 1 -25.6384 3.77843 -87.4797