ITEM: TIMESTEP
21500
ITEM: NUMBER OF ATOMS
14121
ITEM: BOX BOUNDS ss ss ss
-9.8921898187317439e+01 7.0279630997624702e+02
-4.0189502451652457e+00 8.5717700135048659e+01
-9.8907461886634636e+01 5.6270521529722646e+02
ITEM: ATOMS id type x y z
1 1 -98.9649 0 -98.9649
3 1 -95.7759 0 -98.9649
5 1 -92.5869 0 -98.9649
7 1 -89.3979 0 -98.9649
9 1 -86.2089 0 -98.9649
11 1 -83.0199 0 -98.9649
13 1 -79.8309 0 -98.9649
15 1 -76.6419 0 -98.9649
17 1 -73.4529 0 -98.9649
19 1 -70.2639 0 -98.9649
21 1 -67.0749 0 -98.9649
23 1 -63.8859 0 -98.9649
25 1 -60.6969 0 -98.9649
27 1 -57.5079 0 -98.9649
29 1 -54.3189 0 -98.9649
31 1 -51.1299 0 -98.9649
33 1 -47.9409 0 -98.9649
35 1 -44.7519 0 -98.9649
37 1 -41.5629 0 -98.9649
39 1 -38.3739 0 -98.9649
41 1 -35.1849 0 -98.9649
43 1 -31.9959 0 -98.9649
45 1 -28.8069 0 -98.9649
47 1 -25.6179 0 -98.9649
49 1 -22.4289 0 -98.9649
51 1 -19.2399 0 -98.9649
53 1 -16.0509 0 -98.9649
55 1 -12.8619 0 -98.9649
57 1 -9.67286 0 -98.9649
59 1 -6.48386 0 -98.9649
61 1 -3.29486 0 -98.9649
63 1 -0.105856 0 -98.9649
65 1 3.08314 0 -98.9649
67 1 6.27214 0 -98.9649
69 1 9.46114 0 -98.9649
71 1 12.6501 0 -98.9649
73 1 15.8391 0 -98.9649
75 1 19.0281 0 -98.9649
77 1 22.2171 0 -98.9649
79 1 25.4061 0 -98.9649
81 1 28.5951 0 -98.9649
83 1 31.7841 0 -98.9649
85 1 34.9731 0 -98.9649
87 1 38.1621 0 -98.9649
89 1 41.3511 0 -98.9649
91 1 44.5401 0 -98.9649
93 1 47.7291 0 -98.9649
95 1 50.9181 0 -98.9649
97 1 54.1071 0 -98.9649
99 1 57.2961 0 -98.9649
101 1 60.4851 0 -98.9649
103 1 63.6741 0 -98.9649
105 1 66.8631 0 -98.9649
107 1 70.0521 0 -98.9649
109 1 73.2411 0 -98.9649
111 1 76.4301 0 -98.9649
113 1 79.6191 0 -98.9649
115 1 82.8081 0 -98.9649
117 1 85.9971 0 -98.9649
119 1 89.1861 0 -98.9649
121 1 92.3751 0 -98.9649
123 1 95.5641 0 -98.9649
125 1 98.7531 0 -98.9649
127 1 101.942 0 -98.9649
129 1 105.131 0 -98.9649
131 1 108.32 0 -98.9649
133 1 111.509 0 -98.9649
135 1 -97.3704 2.76176 -98.9649
137 1 -94.1814 2.76176 -98.9649
139 1 -90.9924 2.76176 -98.9649
141 1 -87.8034 2.76176 -98.9649
143 1 -84.6144 2.76176 -98.9649
145 1 -81.4254 2.76176 -98.9649
147 1 -78.2364 2.76176 -98.9649
149 1 -75.0474 2.76176 -98.9649
151 1 -71.8584 2.76176 -98.9649
153 1 -68.6694 2.76176 -98.9649
155 1 -65.4804 2.76176 -98.9649
157 1 -62.2914 2.76176 -98.9649
159 1 -59.1024 2.76176 -98.9649
161 1 -55.9134 2.76176 -98.9649
163 1 -52.7244 2.76176 -98.9649
165 1 -49.5354 2.76176 -98.9649
167 1 -46.3464 2.76176 -98.9649
169 1 -43.1574 2.76176 -98.9649
171 1 -39.9684 2.76176 -98.9649
173 1 -36.7794 2.76176 -98.9649
175 1 -33.5904 2.76176 -98.9649
177 1 -30.4014 2.76176 -98.9649
179 1 -27.2124 2.76176 -98.9649
181 1 -24.0234 2.76176 -98.9649
183 1 -20.8344 2.76176 -98.9649
185 1 -17.6454 2.76176 -98.9649
187 1 -14.4564 2.76176 -98.9649
189 1 -11.2674 2.76176 -98.9649
191 1 -8.07836 2.76176 -98.9649
193 1 -4.88936 2.76176 -98.9649
195 1 -1.70036 2.76176 -98.9649
197 1 1.48864 2.76176 -98.9649
199 1 4.67764 2.76176 -98.9649
201 1 7.86664 2.76176 -98.9649
203 1 11.0556 2.76176 -98.9649
205 1 14.2446 2.76176 -98.9649
207 1 17.4336 2.76176 -98.9649
209 1 20.6226 2.76176 -98.9649
211 1 23.8116 2.76176 -98.9649
213 1 27.0006 2.76176 -98.9649
215 1 30.1896 2.76176 -98.9649
217 1 33.3786 2.76176 -98.9649
219 1 36.5676 2.76176 -98.9649
221 1 39.7566 2.76176 -98.9649
223 1 42.9456 2.76176 -98.9649
225 1 46.1346 2.76176 -98.9649
227 1 49.3236 2.76176 -98.9649
229 1 52.5126 2.76176 -98.9649
231 1 55.7016 2.76176 -98.9649
233 1 58.8906 2.76176 -98.9649
235 1 62.0796 2.76176 -98.9649
237 1 65.2686 2.76176 -98.9649
239 1 68.4576 2.76176 -98.9649
241 1 71.6466 2.76176 -98.9649
243 1 74.8356 2.76176 -98.9649
245 1 78.0246 2.76176 -98.9649
247 1 81.2136 2.76176 -98.9649
249 1 84.4026 2.76176 -98.9649
251 1 87.5916 2.76176 -98.9649
253 1 90.7806 2.76176 -98.9649
255 1 93.9696 2.76176 -98.9649
257 1 97.1586 2.76176 -98.9649
259 1 100.348 2.76176 -98.9649
261 1 103.537 2.76176 -98.9649
263 1 106.726 2.76176 -98.9649
265 1 109.915 2.76176 -98.9649
266 1 -98.9649 5.52351 -98.9649
268 1 -95.7759 5.52351 -98.9649
270 1 -92.5869 5.52351 -98.9649
272 1 -89.3979 5.52351 -98.9649
274 1 -86.2089 5.52351 -98.9649
276 1 -83.0199 5.52351 -98.9649
278 1 -79.8309 5.52351 -98.9649
280 1 -76.6419 5.52351 -98.9649
282 1 -73.4529 5.52351 -98.9649
284 1 -70.2639 5.52351 -98.9649
286 1 -67.0749 5.52351 -98.9649
288 1 -63.8859 5.52351 -98.9649
290 1 -60.6969 5.52351 -98.9649
292 1 -57.5079 5.52351 -98.9649
294 1 -54.3189 5.52351 -98.9649
296 1 -51.1299 5.52351 -98.9649
298 1 -47.9409 5.52351 -98.9649
300 1 -44.7519 5.52351 -98.9649
302 1 -41.5629 5.52351 -98.9649
304 1 -38.3739 5.52351 -98.9649
306 1 -35.1849 5.52351 -98.9649
308 1 -31.9959 5.52351 -98.9649
310 1 -28.8069 5.52351 -98.9649
312 1 -25.6179 5.52351 -98.9649
314 1 -22.4289 5.52351 -98.9649
316 1 -19.2399 5.52351 -98.9649
318 1 -16.0509 5.52351 -98.9649
320 1 -12.8619 5.52351 -98.9649
322 1 -9.67286 5.52351 -98.9649
324 1 -6.48386 5.52351 -98.9649
326 1 -3.29486 5.52351 -98.9649
328 1 -0.105856 5.52351 -98.9649
330 1 3.08314 5.52351 -98.9649
332 1 6.27214 5.52351 -98.9649
334 1 9.46114 5.52351 -98.9649
336 1 12.6501 5.52351 -98.9649
338 1 15.8391 5.52351 -98.9649
340 1 19.0281 5.52351 -98.9649
342 1 22.2171 5.52351 -98.9649
344 1 25.4061 5.52351 -98.9649
346 1 28.5951 5.52351 -98.9649
348 1 31.7841 5.52351 -98.9649
350 1 34.9731 5.52351 -98.9649
352 1 38.1621 5.52351 -98.9649
354 1 41.3511 5.52351 -98.9649
356 1 44.5401 5.52351 -98.9649
358 1 47.7291 5.52351 -98.9649
360 1 50.9181 5.52351 -98.9649
362 1 54.1071 5.52351 -98.9649
364 1 57.2961 5.52351 -98.9649
366 1 60.4851 5.52351 -98.9649
368 1 63.6741 5.52351 -98.9649
370 1 66.8631 5.52351 -98.9649
372 1 70.0521 5.52351 -98.9649
374 1 73.2411 5.52351 -98.9649
376 1 76.4301 5.52351 -98.9649
378 1 79.6191 5.52351 -98.9649
380 1 82.8081 5.52351 -98.9649
382 1 85.9971 5.52351 -98.9649
384 1 89.1861 5.52351 -98.9649
386 1 92.3751 5.52351 -98.9649
388 1 95.5641 5.52351 -98.9649
390 1 98.7531 5.52351 -98.9649
392 1 101.942 5.52351 -98.9649
394 1 105.131 5.52351 -98.9649
396 1 108.32 5.52351 -98.9649
398 1 111.509 5.52351 -98.9649
400 1 -97.3704 8.28527 -98.9649
402 1 -94.1814 8.28527 -98.9649
404 1 -90.9924 8.28527 -98.9649
406 1 -87.8034 8.28527 -98.9649
408 1 -84.6144 8.28527 -98.9649
410 1 -81.4254 8.28527 -98.9649
412 1 -78.2364 8.28527 -98.9649
414 1 -75.0474 8.28527 -98.9649
416 1 -71.8584 8.28527 -98.9649
418 1 -68.6694 8.28527 -98.9649
420 1 -65.4804 8.28527 -98.9649
422 1 -62.2914 8.28527 -98.9649
424 1 -59.1024 8.28527 -98.9649
426 1 -55.9134 8.28527 -98.9649
428 1 -52.7244 8.28527 -98.9649
430 1 -49.5354 8.28527 -98.9649
432 1 -46.3464 8.28527 -98.9649
434 1 -43.1574 8.28527 -98.9649
436 1 -39.9684 8.28527 -98.9649
438 1 -36.7794 8.28527 -98.9649
440 1 -33.5904 8.28527 -98.9649
442 1 -30.4014 8.28527 -98.9649
444 1 -27.2124 8.28527 -98.9649
446 1 -24.0234 8.28527 -98.9649
448 1 -20.8344 8.28527 -98.9649
450 1 -17.6454 8.28527 -98.9649
452 1 -14.4564 8.28527 -98.9649
454 1 -11.2674 8.28527 -98.9649
456 1 -8.07836 8.28527 -98.9649
458 1 -4.88936 8.28527 -98.9649
460 1 -1.70036 8.28527 -98.9649
462 1 1.48864 8.28527 -98.9649
464 1 4.67764 8.28527 -98.9649
466 1 7.86664 8.28527 -98.9649
468 1 11.0556 8.28527 -98.9649
470 1 14.2446 8.28527 -98.9649
472 1 17.4336 8.28527 -98.9649
474 1 20.6226 8.28527 -98.9649
476 1 23.8116 8.28527 -98.9649
478 1 27.0006 8.28527 -98.9649
480 1 30.1896 8.28527 -98.9649
482 1 33.3786 8.28527 -98.9649
484 1 36.5676 8.28527 -98.9649
486 1 39.7566 8.28527 -98.9649
488 1 42.9456 8.28527 -98.9649
490 1 46.1346 8.28527 -98.9649
492 1 49.3236 8.28527 -98.9649
494 1 52.5126 8.28527 -98.9649
496 1 55.7016 8.28527 -98.9649
498 1 58.8906 8.28527 -98.9649
500 1 62.0796 8.28527 -98.9649
502 1 65.2686 8.28527 -98.9649
504 1 68.4576 8.28527 -98.9649
506 1 71.6466 8.28527 -98.9649
508 1 74.8356 8.28527 -98.9649
510 1 78.0246 8.28527 -98.9649
512 1 81.2136 8.28527 -98.9649
514 1 84.4026 8.28527 -98.9649
516 1 87.5916 8.28527 -98.9649
518 1 90.7806 8.28527 -98.9649
520 1 93.9696 8.28527 -98.9649
522 1 97.1586 8.28527 -98.9649
524 1 100.348 8.28527 -98.9649
526 1 103.537 8.28527 -98.9649
528 1 106.726 8.28527 -98.9649
530 1 109.915 8.28527 -98.9649
531 1 -98.9649 11.047 -98.9649
533 1 -95.7759 11.047 -98.9649
535 1 -92.5869 11.047 -98.9649
537 1 -89.3979 11.047 -98.9649
539 1 -86.2089 11.047 -98.9649
541 1 -83.0199 11.047 -98.9649
543 1 -79.8309 11.047 -98.9649
545 1 -76.6419 11.047 -98.9649
547 1 -73.4529 11.047 -98.9649
549 1 -70.2639 11.047 -98.9649
551 1 -67.0749 11.047 -98.9649
553 1 -63.8859 11.047 -98.9649
555 1 -60.6969 11.047 -98.9649
557 1 -57.5079 11.047 -98.9649
559 1 -54.3189 11.047 -98.9649
561 1 -51.1299 11.047 -98.9649
563 1 -47.9409 11.047 -98.9649
565 1 -44.7519 11.047 -98.9649
567 1 -41.5629 11.047 -98.9649
569 1 -38.3739 11.047 -98.9649
571 1 -35.1849 11.047 -98.9649
573 1 -31.9959 11.047 -98.9649
575 1 -28.8069 11.047 -98.9649
577 1 -25.6179 11.047 -98.9649
579 1 -22.4289 11.047 -98.9649
581 1 -19.2399 11.047 -98.9649
583 1 -16.0509 11.047 -98.9649
585 1 -12.8619 11.047 -98.9649
587 1 -9.67286 11.047 -98.9649
589 1 -6.48386 11.047 -98.9649
591 1 -3.29486 11.047 -98.9649
593 1 -0.105856 11.047 -98.9649
595 1 3.08314 11.047 -98.9649
597 1 6.27214 11.047 -98.9649
599 1 9.46114 11.047 -98.9649
601 1 12.6501 11.047 -98.9649
603 1 15.8391 11.047 -98.9649
605 1 19.0281 11.047 -98.9649
607 1 22.2171 11.047 -98.9649
609 1 25.4061 11.047 -98.9649
611 1 28.5951 11.047 -98.9649
613 1 31.7841 11.047 -98.9649
615 1 34.9731 11.047 -98.9649
617 1 38.1621 11.047 -98.9649
619 1 41.3511 11.047 -98.9649
621 1 44.5401 11.047 -98.9649
623 1 47.7291 11.047 -98.9649
625 1 50.9181 11.047 -98.9649
627 1 54.1071 11.047 -98.9649
629 1 57.2961 11.047 -98.9649
631 1 60.4851 11.047 -98.9649
633 1 63.6741 11.047 -98.9649
635 1 66.8631 11.047 -98.9649
637 1 70.0521 11.047 -98.9649
639 1 73.2411 11.047 -98.9649
641 1 76.4301 11.047 -98.9649
643 1 79.6191 11.047 -98.9649
645 1 82.8081 11.047 -98.9649
647 1 85.9971 11.047 -98.9649
649 1 89.1861 11.047 -98.9649
651 1 92.3751 11.047 -98.9649
653 1 95.5641 11.047 -98.9649
655 1 98.7531 11.047 -98.9649
657 1 101.942 11.047 -98.9649
659 1 105.131 11.047 -98.9649
661 1 108.32 11.047 -98.9649
663 1 111.509 11.047 -98.9649
665 1 -97.3704 13.8088 -98.9649
667 1 -94.1814 13.8088 -98.9649
669 1 -90.9924 13.8088 -98.9649
671 1 -87.8034 13.8088 -98.9649
673 1 -84.6144 13.8088 -98.9649
675 1 -81.4254 13.8088 -98.9649
677 1 -78.2364 13.8088 -98.9649
679 1 -75.0474 13.8088 -98.9649
681 1 -71.8584 13.8088 -98.9649
683 1 -68.6694 13.8088 -98.9649
685 1 -65.4804 13.8088 -98.9649
687 1 -62.2914 13.8088 -98.9649
689 1 -59.1024 13.8088 -98.9649
691 1 -55.9134 13.8088 -98.9649
693 1 -52.7244 13.8088 -98.9649
695 1 -49.5354 13.8088 -98.9649
697 1 -46.3464 13.8088 -98.9649
699 1 -43.1574 13.8088 -98.9649
701 1 -39.9684 13.8088 -98.9649
703 1 -36.7794 13.8088 -98.9649
705 1 -33.5904 13.8088 -98.9649
707 1 -30.4014 13.8088 -98.9649
709 1 -27.2124 13.8088 -98.9649
711 1 -24.0234 13.8088 -98.9649
713 1 -20.8344 13.8088 -98.9649
715 1 -17.6454 13.8088 -98.9649
717 1 -14.4564 13.8088 -98.9649
719 1 -11.2674 13.8088 -98.9649
721 1 -8.07836 13.8088 -98.9649
723 1 -4.88936 13.8088 -98.9649
725 1 -1.70036 13.8088 -98.9649
727 1 1.48864 13.8088 -98.9649
729 1 4.67764 13.8088 -98.9649
731 1 7.86664 13.8088 -98.9649
733 1 11.0556 13.8088 -98.9649
735 1 14.2446 13.8088 -98.9649
737 1 17.4336 13.8088 -98.9649
739 1 20.6226 13.8088 -98.9649
741 1 23.8116 13.8088 -98.9649
743 1 27.0006 13.8088 -98.9649
745 1 30.1896 13.8088 -98.9649
747 1 33.3786 13.8088 -98.9649
749 1 36.5676 13.8088 -98.9649
751 1 39.7566 13.8088 -98.9649
753 1 42.9456 13.8088 -98.9649
755 1 46.1346 13.8088 -98.9649
757 1 49.3236 13.8088 -98.9649
759 1 52.5126 13.8088 -98.9649
761 1 55.7016 13.8088 -98.9649
763 1 58.8906 13.8088 -98.9649
765 1 62.0796 13.8088 -98.9649
767 1 65.2686 13.8088 -98.9649
769 1 68.4576 13.8088 -98.9649
771 1 71.6466 13.8088 -98.9649
773 1 74.8356 13.8088 -98.9649
775 1 78.0246 13.8088 -98.9649
777 1 81.2136 13.8088 -98.9649
779 1 84.4026 13.8088 -98.9649
781 1 87.5916 13.8088 -98.9649
783 1 90.7806 13.8088 -98.9649
785 1 93.9696 13.8088 -98.9649
787 1 97.1586 13.8088 -98.9649
789 1 100.348 13.8088 -98.9649
791 1 103.537 13.8088 -98.9649
793 1 106.726 13.8088 -98.9649
795 1 109.915 13.8088 -98.9649
796 1 -98.9649 16.5705 -98.9649
798 1 -95.7759 16.5705 -98.9649
800 1 -92.5869 16.5705 -98.9649
802 1 -89.3979 16.5705 -98.9649
804 1 -86.2089 16.5705 -98.9649
806 1 -83.0199 16.5705 -98.9649
808 1 -79.8309 16.5705 -98.9649
810 1 -76.6419 16.5705 -98.9649
812 1 -73.4529 16.5705 -98.9649
814 1 -70.2639 16.5705 -98.9649
816 1 -67.0749 16.5705 -98.9649
818 1 -63.8859 16.5705 -98.9649
820 1 -60.6969 16.5705 -98.9649
822 1 -57.5079 16.5705 -98.9649
824 1 -54.3189 16.5705 -98.9649
826 1 -51.1299 16.5705 -98.9649
828 1 -47.9409 16.5705 -98.9649
830 1 -44.7519 16.5705 -98.9649
832 1 -41.5629 16.5705 -98.9649
834 1 -38.3739 16.5705 -98.9649
836 1 -35.1849 16.5705 -98.9649
838 1 -31.9959 16.5705 -98.9649
840 1 -28.8069 16.5705 -98.9649
842 1 -25.6179 16.5705 -98.9649
844 1 -22.4289 16.5705 -98.9649
846 1 -19.2399 16.5705 -98.9649
848 1 -16.0509 16.5705 -98.9649
850 1 -12.8619 16.5705 -98.9649
852 1 -9.67286 16.5705 -98.9649
854 1 -6.48386 16.5705 -98.9649
856 1 -3.29486 16.5705 -98.9649
858 1 -0.105856 16.5705 -98.9649
860 1 3.08314 16.5705 -98.9649
862 1 6.27214 16.5705 -98.9649
864 1 9.46114 16.5705 -98.9649
866 1 12.6501 16.5705 -98.9649
868 1 15.8391 16.5705 -98.9649
870 1 19.0281 16.5705 -98.9649
872 1 22.2171 16.5705 -98.9649
874 1 25.4061 16.5705 -98.9649
876 1 28.5951 16.5705 -98.9649
878 1 31.7841 16.5705 -98.9649
880 1 34.9731 16.5705 -98.9649
882 1 38.1621 16.5705 -98.9649
884 1 41.3511 16.5705 -98.9649
886 1 44.5401 16.5705 -98.9649
888 1 47.7291 16.5705 -98.9649
890 1 50.9181 16.5705 -98.9649
892 1 54.1071 16.5705 -98.9649
894 1 57.2961 16.5705 -98.9649
896 1 60.4851 16.5705 -98.9649
898 1 63.6741 16.5705 -98.9649
900 1 66.8631 16.5705 -98.9649
902 1 70.0521 16.5705 -98.9649
904 1 73.2411 16.5705 -98.9649
906 1 76.4301 16.5705 -98.9649
908 1 79.6191 16.5705 -98.9649
910 1 82.8081 16.5705 -98.9649
912 1 85.9971 16.5705 -98.9649
914 1 89.1861 16.5705 -98.9649
916 1 92.3751 16.5705 -98.9649
918 1 95.5641 16.5705 -98.9649
920 1 98.7531 16.5705 -98.9649
922 1 101.942 16.5705 -98.9649
924 1 105.131 16.5705 -98.9649
926 1 108.32 16.5705 -98.9649
928 1 111.509 16.5705 -98.9649
930 1 -97.3704 19.3323 -98.9649
932 1 -94.1814 19.3323 -98.9649
934 1 -90.9924 19.3323 -98.9649
936 1 -87.8034 19.3323 -98.9649
938 1 -84.6144 19.3323 -98.9649
940 1 -81.4254 19.3323 -98.9649
942 1 -78.2364 19.3323 -98.9649
944 1 -75.0474 19.3323 -98.9649
946 1 -71.8584 19.3323 -98.9649
948 1 -68.6694 19.3323 -98.9649
950 1 -65.4804 19.3323 -98.9649
952 1 -62.2914 19.3323 -98.9649
954 1 -59.1024 19.3323 -98.9649
956 1 -55.9134 19.3323 -98.9649
958 1 -52.7244 19.3323 -98.9649
960 1 -49.5354 19.3323 -98.9649
962 1 -46.3464 19.3323 -98.9649
964 1 -43.1574 19.3323 -98.9649
966 1 -39.9684 19.3323 -98.9649
968 1 -36.7794 19.3323 -98.9649
970 1 -33.5904 19.3323 -98.9649
972 1 -30.4014 19.3323 -98.9649
974 1 -27.2124 19.3323 -98.9649
976 1 -24.0234 19.3323 -98.9649
978 1 -20.8344 19.3323 -98.9649
980 1 -17.6454 19.3323 -98.9649
982 1 -14.4564 19.3323 -98.9649
984 1 -11.2674 19.3323 -98.9649
986 1 -8.07836 19.3323 -98.9649
988 1 -4.88936 19.3323 -98.9649
990 1 -1.70036 19.3323 -98.9649
992 1 1.48864 19.3323 -98.9649
994 1 4.67764 19.3323 -98.9649
996 1 7.86664 19.3323 -98.9649
998 1 11.0556 19.3323 -98.9649
1000 1 14.2446 19.3323 -98.9649
1002 1 17.4336 19.3323 -98.9649
1004 1 20.6226 19.3323 -98.9649
1006 1 23.8116 19.3323 -98.9649
1008 1 27.0006 19.3323 -98.9649
1010 1 30.1896 19.3323 -98.9649
1012 1 33.3786 19.3323 -98.9649
1014 1 36.5676 19.3323 -98.9649
1016 1 39.7566 19.3323 -98.9649
1018 1 42.9456 19.3323 -98.9649
1020 1 46.1346 19.3323 -98.9649
1022 1 49.3236 19.3323 -98.9649
1024 1 52.5126 19.3323 -98.9649
1026 1 55.7016 19.3323 -98.9649
1028 1 58.8906 19.3323 -98.9649
1030 1 62.0796 19.3323 -98.9649
1032 1 65.2686 19.3323 -98.9649
1034 1 68.4576 19.3323 -98.9649
1036 1 71.6466 19.3323 -98.9649
1038 1 74.8356 19.3323 -98.9649
1040 1 78.0246 19.3323 -98.9649
1042 1 81.2136 19.3323 -98.9649
1044 1 84.4026 19.3323 -98.9649
1046 1 87.5916 19.3323 -98.9649
1048 1 90.7806 19.3323 -98.9649
1050 1 93.9696 19.3323 -98.9649
1052 1 97.1586 19.3323 -98.9649
1054 1 100.348 19.3323 -98.9649
1056 1 103.537 19.3323 -98.9649
1058 1 106.726 19.3323 -98.9649
1060 1 109.915 19.3323 -98.9649
1061 1 -98.9649 22.094 -98.9649
1063 1 -95.7759 22.094 -98.9649
1065 1 -92.5869 22.094 -98.9649
1067 1 -89.3979 22.094 -98.9649
1069 1 -86.2089 22.094 -98.9649
1071 1 -83.0199 22.094 -98.9649
1073 1 -79.8309 22.094 -98.9649
1075 1 -76.6419 22.094 -98.9649
1077 1 -73.4529 22.094 -98.9649
1079 1 -70.2639 22.094 -98.9649
1081 1 -67.0749 22.094 -98.9649
1083 1 -63.8859 22.094 -98.9649
1085 1 -60.6969 22.094 -98.9649
1087 1 -57.5079 22.094 -98.9649
1089 1 -54.3189 22.094 -98.9649
1091 1 -51.1299 22.094 -98.9649
1093 1 -47.9409 22.094 -98.9649
1095 1 -44.7519 22.094 -98.9649
1097 1 -41.5629 22.094 -98.9649
1099 1 -38.3739 22.094 -98.9649
1101 1 -35.1849 22.094 -98.9649
1103 1 -31.9959 22.094 -98.9649
1105 1 -28.8069 22.094 -98.9649
1107 1 -25.6179 22.094 -98.9649
1109 1 -22.4289 22.094 -98.9649
1111 1 -19.2399 22.094 -98.9649
1113 1 -16.0509 22.094 -98.9649
1115 1 -12.8619 22.094 -98.9649
1117 1 -9.67286 22.094 -98.9649
1119 1 -6.48386 22.094 -98.9649
1121 1 -3.29486 22.094 -98.9649
1123 1 -0.105856 22.094 -98.9649
1125 1 3.08314 22.094 -98.9649
1127 1 6.27214 22.094 -98.9649
1129 1 9.46114 22.094 -98.9649
1131 1 12.6501 22.094 -98.9649
1133 1 15.8391 22.094 -98.9649
1135 1 19.0281 22.094 -98.9649
1137 1 22.2171 22.094 -98.9649
1139 1 25.4061 22.094 -98.9649
1141 1 28.5951 22.094 -98.9649
1143 1 31.7841 22.094 -98.9649
1145 1 34.9731 22.094 -98.9649
1147 1 38.1621 22.094 -98.9649
1149 1 41.3511 22.094 -98.9649
1151 1 44.5401 22.094 -98.9649
1153 1 47.7291 22.094 -98.9649
1155 1 50.9181 22.094 -98.9649
1157 1 54.1071 22.094 -98.9649
1159 1 57.2961 22.094 -98.9649
1161 1 60.4851 22.094 -98.9649
1163 1 63.6741 22.094 -98.9649
1165 1 66.8631 22.094 -98.9649
1167 1 70.0521 22.094 -98.9649
1169 1 73.2411 22.094 -98.9649
1171 1 76.4301 22.094 -98.9649
1173 1 79.6191 22.094 -98.9649
1175 1 82.8081 22.094 -98.9649
1177 1 85.9971 22.094 -98.9649
1179 1 89.1861 22.094 -98.9649
1181 1 92.3751 22.094 -98.9649
1183 1 95.5641 22.094 -98.9649
1185 1 98.7531 22.094 -98.9649
1187 1 101.942 22.094 -98.9649
1189 1 105.131 22.094 -98.9649
1191 1 108.32 22.094 -98.9649
1193 1 111.509 22.094 -98.9649
1195 1 -97.3704 24.8558 -98.9649
1197 1 -94.1814 24.8558 -98.9649
1199 1 -90.9924 24.8558 -98.9649
1201 1 -87.8034 24.8558 -98.9649
1203 1 -84.6144 24.8558 -98.9649
1205 1 -81.4254 24.8558 -98.9649
1207 1 -78.2364 24.8558 -98.9649
1209 1 -75.0474 24.8558 -98.9649
1211 1 -71.8584 24.8558 -98.9649
1213 1 -68.6694 24.8558 -98.9649
1215 1 -65.4804 24.8558 -98.9649
1217 1 -62.2914 24.8558 -98.9649
1219 1 -59.1024 24.8558 -98.9649
1221 1 -55.9134 24.8558 -98.9649
1223 1 -52.7244 24.8558 -98.9649
1225 1 -49.5354 24.8558 -98.9649
1227 1 -46.3464 24.8558 -98.9649
1229 1 -43.1574 24.8558 -98.9649
1231 1 -39.9684 24.8558 -98.9649
1233 1 -36.7794 24.8558 -98.9649
1235 1 -33.5904 24.8558 -98.9649
1237 1 -30.4014 24.8558 -98.9649
1239 1 -27.2124 24.8558 -98.9649
1241 1 -24.0234 24.8558 -98.9649
1243 1 -20.8344 24.8558 -98.9649
1245 1 -17.6454 24.8558 -98.9649
1247 1 -14.4564 24.8558 -98.9649
1249 1 -11.2674 24.8558 -98.9649
1251 1 -8.07836 24.8558 -98.9649
1253 1 -4.88936 24.8558 -98.9649
1255 1 -1.70036 24.8558 -98.9649
1257 1 1.48864 24.8558 -98.9649
1259 1 4.67764 24.8558 -98.9649
1261 1 7.86664 24.8558 -98.9649
1263 1 11.0556 24.8558 -98.9649
1265 1 14.2446 24.8558 -98.9649
1267 1 17.4336 24.8558 -98.9649
1269 1 20.6226 24.8558 -98.9649
1271 1 23.8116 24.8558 -98.9649
1273 1 27.0006 24.8558 -98.9649
1275 1 30.1896 24.8558 -98.9649
1277 1 33.3786 24.8558 -98.9649
1279 1 36.5676 24.8558 -98.9649
1281 1 39.7566 24.8558 -98.9649
1283 1 42.9456 24.8558 -98.9649
1285 1 46.1346 24.8558 -98.9649
1287 1 49.3236 24.8558 -98.9649
1289 1 52.5126 24.8558 -98.9649
1291 1 55.7016 24.8558 -98.9649
1293 1 58.8906 24.8558 -98.9649
1295 1 62.0796 24.8558 -98.9649
1297 1 65.2686 24.8558 -98.9649
1299 1 68.4576 24.8558 -98.9649
1301 1 71.6466 24.8558 -98.9649
1303 1 74.8356 24.8558 -98.9649
1305 1 78.0246 24.8558 -98.9649
1307 1 81.2136 24.8558 -98.9649
1309 1 84.4026 24.8558 -98.9649
1311 1 87.5916 24.8558 -98.9649
1313 1 90.7806 24.8558 -98.9649
1315 1 93.9696 24.8558 -98.9649
1317 1 97.1586 24.8558 -98.9649
1319 1 100.348 24.8558 -98.9649
1321 1 103.537 24.8558 -98.9649
1323 1 106.726 24.8558 -98.9649
1325 1 109.915 24.8558 -98.9649
1326 1 -98.9649 27.6176 -98.9649
1328 1 -95.7759 27.6176 -98.9649
1330 1 -92.5869 27.6176 -98.9649
1332 1 -89.3979 27.6176 -98.9649
1334 1 -86.2089 27.6176 -98.9649
1336 1 -83.0199 27.6176 -98.9649
1338 1 -79.8309 27.6176 -98.9649
1340 1 -76.6419 27.6176 -98.9649
1342 1 -73.4529 27.6176 -98.9649
1344 1 -70.2639 27.6176 -98.9649
1346 1 -67.0749 27.6176 -98.9649
1348 1 -63.8859 27.6176 -98.9649
1350 1 -60.6969 27.6176 -98.9649
1352 1 -57.5079 27.6176 -98.9649
1354 1 -54.3189 27.6176 -98.9649
1356 1 -51.1299 27.6176 -98.9649
1358 1 -47.9409 27.6176 -98.9649
1360 1 -44.7519 27.6176 -98.9649
1362 1 -41.5629 27.6176 -98.9649
1364 1 -38.3739 27.6176 -98.9649
1366 1 -35.1849 27.6176 -98.9649
1368 1 -31.9959 27.6176 -98.9649
1370 1 -28.8069 27.6176 -98.9649
1372 1 -25.6179 27.6176 -98.9649
1374 1 -22.4289 27.6176 -98.9649
1376 1 -19.2399 27.6176 -98.9649
1378 1 -16.0509 27.6176 -98.9649
1380 1 -12.8619 27.6176 -98.9649
1382 1 -9.67286 27.6176 -98.9649
1384 1 -6.48386 27.6176 -98.9649
1386 1 -3.29486 27.6176 -98.9649
1388 1 -0.105856 27.6176 -98.9649
1390 1 3.08314 27.6176 -98.9649
1392 1 6.27214 27.6176 -98.9649
1394 1 9.46114 27.6176 -98.9649
1396 1 12.6501 27.6176 -98.9649
1398 1 15.8391 27.6176 -98.9649
1400 1 19.0281 27.6176 -98.9649
1402 1 22.2171 27.6176 -98.9649
1404 1 25.4061 27.6176 -98.9649
1406 1 28.5951 27.6176 -98.9649
1408 1 31.7841 27.6176 -98.9649
1410 1 34.9731 27.6176 -98.9649
1412 1 38.1621 27.6176 -98.9649
1414 1 41.3511 27.6176 -98.9649
1416 1 44.5401 27.6176 -98.9649
1418 1 47.7291 27.6176 -98.9649
1420 1 50.9181 27.6176 -98.9649
1422 1 54.1071 27.6176 -98.9649
1424 1 57.2961 27.6176 -98.9649
1426 1 60.4851 27.6176 -98.9649
1428 1 63.6741 27.6176 -98.9649
1430 1 66.8631 27.6176 -98.9649
1432 1 70.0521 27.6176 -98.9649
1434 1 73.2411 27.6176 -98.9649
1436 1 76.4301 27.6176 -98.9649
1438 1 79.6191 27.6176 -98.9649
1440 1 82.8081 27.6176 -98.9649
1442 1 85.9971 27.6176 -98.9649
1444 1 89.1861 27.6176 -98.9649
1446 1 92.3751 27.6176 -98.9649
1448 1 95.5641 27.6176 -98.9649
1450 1 98.7531 27.6176 -98.9649
1452 1 101.942 27.6176 -98.9649
1454 1 105.131 27.6176 -98.9649
1456 1 108.32 27.6176 -98.9649
1458 1 111.509 27.6176 -98.9649
1460 1 -97.3704 30.3793 -98.9649
1462 1 -94.1814 30.3793 -98.9649
1464 1 -90.9924 30.3793 -98.9649
1466 1 -87.8034 30.3793 -98.9649
1468 1 -84.6144 30.3793 -98.9649
1470 1 -81.4254 30.3793 -98.9649
1472 1 -78.2364 30.3793 -98.9649
1474 1 -75.0474 30.3793 -98.9649
1476 1 -71.8584 30.3793 -98.9649
1478 1 -68.6694 30.3793 -98.9649
1480 1 -65.4804 30.3793 -98.9649
1482 1 -62.2914 30.3793 -98.9649
1484 1 -59.1024 30.3793 -98.9649
1486 1 -55.9134 30.3793 -98.9649
1488 1 -52.7244 30.3793 -98.9649
1490 1 -49.5354 30.3793 -98.9649
1492 1 -46.3464 30.3793 -98.9649
1494 1 -43.1574 30.3793 -98.9649
1496 1 -39.9684 30.3793 -98.9649
1498 1 -36.7794 30.3793 -98.9649
1500 1 -33.5904 30.3793 -98.9649
1502 1 -30.4014 30.3793 -98.9649
1504 1 -27.2124 30.3793 -98.9649
1506 1 -24.0234 30.3793 -98.9649
1508 1 -20.8344 30.3793 -98.9649
1510 1 -17.6454 30.3793 -98.9649
1512 1 -14.4564 30.3793 -98.9649
1514 1 -11.2674 30.3793 -98.9649
1516 1 -8.07836 30.3793 -98.9649
1518 1 -4.88936 30.3793 -98.9649
1520 1 -1.70036 30.3793 -98.9649
1522 1 1.48864 30.3793 -98.9649
1524 1 4.67764 30.3793 -98.9649
1526 1 7.86664 30.3793 -98.9649
1528 1 11.0556 30.3793 -98.9649
1530 1 14.2446 30.3793 -98.9649
1532 1 17.4336 30.3793 -98.9649
1534 1 20.6226 30.3793 -98.9649
1536 1 23.8116 30.3793 -98.9649
1538 1 27.0006 30.3793 -98.9649
1540 1 30.1896 30.3793 -98.9649
1542 1 33.3786 30.3793 -98.9649
1544 1 36.5676 30.3793 -98.9649
1546 1 39.7566 30.3793 -98.9649
1548 1 42.9456 30.3793 -98.9649
1550 1 46.1346 30.3793 -98.9649
1552 1 49.3236 30.3793 -98.9649
1554 1 52.5126 30.3793 -98.9649
1556 1 55.7016 30.3793 -98.9649
1558 1 58.8906 30.3793 -98.9649
1560 1 62.0796 30.3793 -98.9649
1562 1 65.2686 30.3793 -98.9649
1564 1 68.4576 30.3793 -98.9649
1566 1 71.6466 30.3793 -98.9649
1568 1 74.8356 30.3793 -98.9649
1570 1 78.0246 30.3793 -98.9649
1572 1 81.2136 30.3793 -98.9649
1574 1 84.4026 30.3793 -98.9649
1576 1 87.5916 30.3793 -98.9649
1578 1 90.7806 30.3793 -98.9649
1580 1 93.9696 30.3793 -98.9649
1582 1 97.1586 30.3793 -98.9649
1584 1 100.348 30.3793 -98.9649
1586 1 103.537 30.3793 -98.9649
1588 1 106.726 30.3793 -98.9649
1590 1 109.915 30.3793 -98.9649
1591 1 -98.9649 33.1411 -98.9649
1592 1 -95.7759 33.1411 -98.9649
1593 1 -92.5869 33.1411 -98.9649
1594 1 -89.3979 33.1411 -98.9649
1595 1 -86.2089 33.1411 -98.9649
1596 1 -83.0199 33.1411 -98.9649
1597 1 -79.8309 33.1411 -98.9649
1598 1 -76.6419 33.1411 -98.9649
1599 1 -73.4529 33.1411 -98.9649
1600 1 -70.2639 33.1411 -98.9649
1601 1 -67.0749 33.1411 -98.9649
1602 1 -63.8859 33.1411 -98.9649
1603 1 -60.6969 33.1411 -98.9649
1604 1 -57.5079 33.1411 -98.9649
1605 1 -54.3189 33.1411 -98.9649
1606 1 -51.1299 33.1411 -98.9649
1607 1 -47.9409 33.1411 -98.9649
1608 1 -44.7519 33.1411 -98.9649
1609 1 -41.5629 33.1411 -98.9649
1610 1 -38.3739 33.1411 -98.9649
1611 1 -35.1849 33.1411 -98.9649
1612 1 -31.9959 33.1411 -98.9649
1613 1 -28.8069 33.1411 -98.9649
1614 1 -25.6179 33.1411 -98.9649
1615 1 -22.4289 33.1411 -98.9649
1616 1 -19.2399 33.1411 -98.9649
1617 1 -16.0509 33.1411 -98.9649
1618 1 -12.8619 33.1411 -98.9649
1619 1 -9.67286 33.1411 -98.9649
1620 1 -6.48386 33.1411 -98.9649
1621 1 -3.29486 33.1411 -98.9649
1622 1 -0.105856 33.1411 -98.9649
1623 1 3.08314 33.1411 -98.9649
1624 1 6.27214 33.1411 -98.9649
1625 1 9.46114 33.1411 -98.9649
1626 1 12.6501 33.1411 -98.9649
1627 1 15.8391 33.1411 -98.9649
1628 1 19.0281 33.1411 -98.9649
1629 1 22.2171 33.1411 -98.9649
1630 1 25.4061 33.1411 -98.9649
1631 1 28.5951 33.1411 -98.9649
1632 1 31.7841 33.1411 -98.9649
1633 1 34.9731 33.1411 -98.9649
1634 1 38.1621 33.1411 -98.9649
1635 1 41.3511 33.1411 -98.9649
1636 1 44.5401 33.1411 -98.9649
1637 1 47.7291 33.1411 -98.9649
1638 1 50.9181 33.1411 -98.9649
1639 1 54.1071 33.1411 -98.9649
1640 1 57.2961 33.1411 -98.9649
1641 1 60.4851 33.1411 -98.9649
1642 1 63.6741 33.1411 -98.9649
1643 1 66.8631 33.1411 -98.9649
1644 1 70.0521 33.1411 -98.9649
1645 1 73.2411 33.1411 -98.9649
1646 1 76.4301 33.1411 -98.9649
1647 1 79.6191 33.1411 -98.9649
1648 1 82.8081 33.1411 -98.9649
1649 1 85.9971 33.1411 -98.9649
1650 1 89.1861 33.1411 -98.9649
1651 1 92.3751 33.1411 -98.9649
1652 1 95.5641 33.1411 -98.9649
1653 1 98.7531 33.1411 -98.9649
1654 1 101.942 33.1411 -98.9649
1655 1 105.131 33.1411 -98.9649
1656 1 108.32 33.1411 -98.9649
1657 1 111.509 33.1411 -98.9649
2 1 -97.4023 1.01668 -90.6802
4 1 -94.2133 1.01668 -90.6802
6 1 -91.0243 1.01668 -90.6802
8 1 -87.8353 1.01668 -90.6802
10 1 -84.6463 1.01668 -90.6802
12 1 -81.4573 1.01668 -90.6802
14 1 -78.2683 1.01668 -90.6802
16 1 -75.0793 1.01668 -90.6802
18 1 -71.8903 1.01668 -90.6802
20 1 -68.7013 1.01668 -90.6802
22 1 -65.5123 1.01668 -90.6802
24 1 -62.3233 1.01668 -90.6802
26 1 -59.1343 1.01668 -90.6802
28 1 -55.9453 1.01668 -90.6802
30 1 -52.7563 1.01668 -90.6802
32 1 -49.5673 1.01668 -90.6802
34 1 -46.3783 1.01668 -90.6802
36 1 -43.1893 1.01668 -90.6802
38 1 -40.0003 1.01668 -90.6802
40 1 -36.8113 1.01668 -90.6802
42 1 -33.6223 1.01668 -90.6802
44 1 -30.4333 1.01668 -90.6802
46 1 -27.2443 1.01668 -90.6802
48 1 -24.0553 1.01668 -90.6802
50 1 -20.8663 1.01668 -90.6802
52 1 -17.6773 1.01668 -90.6802
54 1 -14.4883 1.01668 -90.6802
56 1 -11.2993 1.01668 -90.6802
58 1 -8.11035 1.01668 -90.6802
60 1 -4.92135 1.01668 -90.6802
62 1 -1.73235 1.01668 -90.6802
64 1 1.45665 1.01668 -90.6802
66 1 4.64565 1.01668 -90.6802
68 1 7.83465 1.01668 -90.6802
70 1 11.0237 1.01668 -90.6802
72 1 14.2127 1.01668 -90.6802
74 1 17.4017 1.01668 -90.6802
76 1 20.5907 1.01668 -90.6802
78 1 23.7797 1.01668 -90.6802
80 1 26.9687 1.01668 -90.6802
82 1 30.1577 1.01668 -90.6802
84 1 33.3467 1.01668 -90.6802
86 1 36.5357 1.01668 -90.6802
88 1 39.7247 1.01668 -90.6802
90 1 42.9137 1.01668 -90.6802
92 1 46.1027 1.01668 -90.6802
94 1 49.2917 1.01668 -90.6802
96 1 52.4807 1.01668 -90.6802
98 1 55.6697 1.01668 -90.6802
100 1 58.8587 1.01668 -90.6802
102 1 62.0477 1.01668 -90.6802
104 1 65.2367 1.01668 -90.6802
106 1 68.4257 1.01668 -90.6802
108 1 71.6147 1.01668 -90.6802
110 1 74.8037 1.01668 -90.6802
112 1 77.9927 1.01668 -90.6802
114 1 81.1817 1.01668 -90.6802
116 1 84.3707 1.01668 -90.6802
118 1 87.5597 1.01668 -90.6802
120 1 90.7487 1.01668 -90.6802
122 1 93.9377 1.01668 -90.6802
124 1 97.1267 1.01668 -90.6802
126 1 100.316 1.01668 -90.6802
128 1 103.505 1.01668 -90.6802
130 1 106.694 1.01668 -90.6802
132 1 109.883 1.01668 -90.6802
134 1 -98.9647 3.68225 -90.6974
136 1 -95.8078 3.77843 -90.6802
138 1 -92.6188 3.77843 -90.6802
140 1 -89.4298 3.77843 -90.6802
142 1 -86.2408 3.77843 -90.6802
144 1 -83.0518 3.77843 -90.6802
146 1 -79.8628 3.77843 -90.6802
148 1 -76.6738 3.77843 -90.6802
150 1 -73.4848 3.77843 -90.6802
152 1 -70.2958 3.77843 -90.6802
154 1 -67.1068 3.77843 -90.6802
156 1 -63.9178 3.77843 -90.6802
158 1 -60.7288 3.77843 -90.6802
160 1 -57.5398 3.77843 -90.6802
162 1 -54.3508 3.77843 -90.6802
164 1 -51.1618 3.77843 -90.6802
166 1 -47.9728 3.77843 -90.6802
168 1 -44.7838 3.77843 -90.6802
170 1 -41.5948 3.77843 -90.6802
172 1 -38.4058 3.77843 -90.6802
174 1 -35.2168 3.77843 -90.6802
176 1 -32.0278 3.77843 -90.6802
178 1 -28.8388 3.77843 -90.6802