ITEM: TIMESTEP
20000
ITEM: NUMBER OF ATOMS
14121
ITEM: BOX BOUNDS ss ss ss
-8.9326884155447601e+01 6.5503496469577692e+02
-1.0231754111503553e+00 7.1575736249233941e+01
-8.9312447854764798e+01 5.0853408319282346e+02
ITEM: ATOMS id type x y z
1 1 -89.3634 0 -89.3634
3 1 -86.1744 0 -89.3634
5 1 -82.9854 0 -89.3634
7 1 -79.7964 0 -89.3634
9 1 -76.6074 0 -89.3634
11 1 -73.4184 0 -89.3634
13 1 -70.2294 0 -89.3634
15 1 -67.0404 0 -89.3634
17 1 -63.8514 0 -89.3634
19 1 -60.6624 0 -89.3634
21 1 -57.4734 0 -89.3634
23 1 -54.2844 0 -89.3634
25 1 -51.0954 0 -89.3634
27 1 -47.9064 0 -89.3634
29 1 -44.7174 0 -89.3634
31 1 -41.5284 0 -89.3634
33 1 -38.3394 0 -89.3634
35 1 -35.1504 0 -89.3634
37 1 -31.9614 0 -89.3634
39 1 -28.7724 0 -89.3634
41 1 -25.5834 0 -89.3634
43 1 -22.3944 0 -89.3634
45 1 -19.2054 0 -89.3634
47 1 -16.0164 0 -89.3634
49 1 -12.8274 0 -89.3634
51 1 -9.63844 0 -89.3634
53 1 -6.44944 0 -89.3634
55 1 -3.26044 0 -89.3634
57 1 -0.071441 0 -89.3634
59 1 3.11756 0 -89.3634
61 1 6.30656 0 -89.3634
63 1 9.49556 0 -89.3634
65 1 12.6846 0 -89.3634
67 1 15.8736 0 -89.3634
69 1 19.0626 0 -89.3634
71 1 22.2516 0 -89.3634
73 1 25.4406 0 -89.3634
75 1 28.6296 0 -89.3634
77 1 31.8186 0 -89.3634
79 1 35.0076 0 -89.3634
81 1 38.1966 0 -89.3634
83 1 41.3856 0 -89.3634
85 1 44.5746 0 -89.3634
87 1 47.7636 0 -89.3634
89 1 50.9526 0 -89.3634
91 1 54.1416 0 -89.3634
93 1 57.3306 0 -89.3634
95 1 60.5196 0 -89.3634
97 1 63.7086 0 -89.3634
99 1 66.8976 0 -89.3634
101 1 70.0866 0 -89.3634
103 1 73.2756 0 -89.3634
105 1 76.4646 0 -89.3634
107 1 79.6536 0 -89.3634
109 1 82.8426 0 -89.3634
111 1 86.0316 0 -89.3634
113 1 89.2206 0 -89.3634
115 1 92.4096 0 -89.3634
117 1 95.5986 0 -89.3634
119 1 98.7876 0 -89.3634
121 1 101.977 0 -89.3634
123 1 105.166 0 -89.3634
125 1 108.355 0 -89.3634
127 1 111.544 0 -89.3634
129 1 114.733 0 -89.3634
131 1 117.922 0 -89.3634
133 1 121.111 0 -89.3634
135 1 -87.7689 2.76176 -89.3634
137 1 -84.5799 2.76176 -89.3634
139 1 -81.3909 2.76176 -89.3634
141 1 -78.2019 2.76176 -89.3634
143 1 -75.0129 2.76176 -89.3634
145 1 -71.8239 2.76176 -89.3634
147 1 -68.6349 2.76176 -89.3634
149 1 -65.4459 2.76176 -89.3634
151 1 -62.2569 2.76176 -89.3634
153 1 -59.0679 2.76176 -89.3634
155 1 -55.8789 2.76176 -89.3634
157 1 -52.6899 2.76176 -89.3634
159 1 -49.5009 2.76176 -89.3634
161 1 -46.3119 2.76176 -89.3634
163 1 -43.1229 2.76176 -89.3634
165 1 -39.9339 2.76176 -89.3634
167 1 -36.7449 2.76176 -89.3634
169 1 -33.5559 2.76176 -89.3634
171 1 -30.3669 2.76176 -89.3634
173 1 -27.1779 2.76176 -89.3634
175 1 -23.9889 2.76176 -89.3634
177 1 -20.7999 2.76176 -89.3634
179 1 -17.6109 2.76176 -89.3634
181 1 -14.4219 2.76176 -89.3634
183 1 -11.2329 2.76176 -89.3634
185 1 -8.04394 2.76176 -89.3634
187 1 -4.85494 2.76176 -89.3634
189 1 -1.66594 2.76176 -89.3634
191 1 1.52306 2.76176 -89.3634
193 1 4.71206 2.76176 -89.3634
195 1 7.90106 2.76176 -89.3634
197 1 11.0901 2.76176 -89.3634
199 1 14.2791 2.76176 -89.3634
201 1 17.4681 2.76176 -89.3634
203 1 20.6571 2.76176 -89.3634
205 1 23.8461 2.76176 -89.3634
207 1 27.0351 2.76176 -89.3634
209 1 30.2241 2.76176 -89.3634
211 1 33.4131 2.76176 -89.3634
213 1 36.6021 2.76176 -89.3634
215 1 39.7911 2.76176 -89.3634
217 1 42.9801 2.76176 -89.3634
219 1 46.1691 2.76176 -89.3634
221 1 49.3581 2.76176 -89.3634
223 1 52.5471 2.76176 -89.3634
225 1 55.7361 2.76176 -89.3634
227 1 58.9251 2.76176 -89.3634
229 1 62.1141 2.76176 -89.3634
231 1 65.3031 2.76176 -89.3634
233 1 68.4921 2.76176 -89.3634
235 1 71.6811 2.76176 -89.3634
237 1 74.8701 2.76176 -89.3634
239 1 78.0591 2.76176 -89.3634
241 1 81.2481 2.76176 -89.3634
243 1 84.4371 2.76176 -89.3634
245 1 87.6261 2.76176 -89.3634
247 1 90.8151 2.76176 -89.3634
249 1 94.0041 2.76176 -89.3634
251 1 97.1931 2.76176 -89.3634
253 1 100.382 2.76176 -89.3634
255 1 103.571 2.76176 -89.3634
257 1 106.76 2.76176 -89.3634
259 1 109.949 2.76176 -89.3634
261 1 113.138 2.76176 -89.3634
263 1 116.327 2.76176 -89.3634
265 1 119.516 2.76176 -89.3634
266 1 -89.3634 5.52351 -89.3634
268 1 -86.1744 5.52351 -89.3634
270 1 -82.9854 5.52351 -89.3634
272 1 -79.7964 5.52351 -89.3634
274 1 -76.6074 5.52351 -89.3634
276 1 -73.4184 5.52351 -89.3634
278 1 -70.2294 5.52351 -89.3634
280 1 -67.0404 5.52351 -89.3634
282 1 -63.8514 5.52351 -89.3634
284 1 -60.6624 5.52351 -89.3634
286 1 -57.4734 5.52351 -89.3634
288 1 -54.2844 5.52351 -89.3634
290 1 -51.0954 5.52351 -89.3634
292 1 -47.9064 5.52351 -89.3634
294 1 -44.7174 5.52351 -89.3634
296 1 -41.5284 5.52351 -89.3634
298 1 -38.3394 5.52351 -89.3634
300 1 -35.1504 5.52351 -89.3634
302 1 -31.9614 5.52351 -89.3634
304 1 -28.7724 5.52351 -89.3634
306 1 -25.5834 5.52351 -89.3634
308 1 -22.3944 5.52351 -89.3634
310 1 -19.2054 5.52351 -89.3634
312 1 -16.0164 5.52351 -89.3634
314 1 -12.8274 5.52351 -89.3634
316 1 -9.63844 5.52351 -89.3634
318 1 -6.44944 5.52351 -89.3634
320 1 -3.26044 5.52351 -89.3634
322 1 -0.071441 5.52351 -89.3634
324 1 3.11756 5.52351 -89.3634
326 1 6.30656 5.52351 -89.3634
328 1 9.49556 5.52351 -89.3634
330 1 12.6846 5.52351 -89.3634
332 1 15.8736 5.52351 -89.3634
334 1 19.0626 5.52351 -89.3634
336 1 22.2516 5.52351 -89.3634
338 1 25.4406 5.52351 -89.3634
340 1 28.6296 5.52351 -89.3634
342 1 31.8186 5.52351 -89.3634
344 1 35.0076 5.52351 -89.3634
346 1 38.1966 5.52351 -89.3634
348 1 41.3856 5.52351 -89.3634
350 1 44.5746 5.52351 -89.3634
352 1 47.7636 5.52351 -89.3634
354 1 50.9526 5.52351 -89.3634
356 1 54.1416 5.52351 -89.3634
358 1 57.3306 5.52351 -89.3634
360 1 60.5196 5.52351 -89.3634
362 1 63.7086 5.52351 -89.3634
364 1 66.8976 5.52351 -89.3634
366 1 70.0866 5.52351 -89.3634
368 1 73.2756 5.52351 -89.3634
370 1 76.4646 5.52351 -89.3634
372 1 79.6536 5.52351 -89.3634
374 1 82.8426 5.52351 -89.3634
376 1 86.0316 5.52351 -89.3634
378 1 89.2206 5.52351 -89.3634
380 1 92.4096 5.52351 -89.3634
382 1 95.5986 5.52351 -89.3634
384 1 98.7876 5.52351 -89.3634
386 1 101.977 5.52351 -89.3634
388 1 105.166 5.52351 -89.3634
390 1 108.355 5.52351 -89.3634
392 1 111.544 5.52351 -89.3634
394 1 114.733 5.52351 -89.3634
396 1 117.922 5.52351 -89.3634
398 1 121.111 5.52351 -89.3634
400 1 -87.7689 8.28527 -89.3634
402 1 -84.5799 8.28527 -89.3634
404 1 -81.3909 8.28527 -89.3634
406 1 -78.2019 8.28527 -89.3634
408 1 -75.0129 8.28527 -89.3634
410 1 -71.8239 8.28527 -89.3634
412 1 -68.6349 8.28527 -89.3634
414 1 -65.4459 8.28527 -89.3634
416 1 -62.2569 8.28527 -89.3634
418 1 -59.0679 8.28527 -89.3634
420 1 -55.8789 8.28527 -89.3634
422 1 -52.6899 8.28527 -89.3634
424 1 -49.5009 8.28527 -89.3634
426 1 -46.3119 8.28527 -89.3634
428 1 -43.1229 8.28527 -89.3634
430 1 -39.9339 8.28527 -89.3634
432 1 -36.7449 8.28527 -89.3634
434 1 -33.5559 8.28527 -89.3634
436 1 -30.3669 8.28527 -89.3634
438 1 -27.1779 8.28527 -89.3634
440 1 -23.9889 8.28527 -89.3634
442 1 -20.7999 8.28527 -89.3634
444 1 -17.6109 8.28527 -89.3634
446 1 -14.4219 8.28527 -89.3634
448 1 -11.2329 8.28527 -89.3634
450 1 -8.04394 8.28527 -89.3634
452 1 -4.85494 8.28527 -89.3634
454 1 -1.66594 8.28527 -89.3634
456 1 1.52306 8.28527 -89.3634
458 1 4.71206 8.28527 -89.3634
460 1 7.90106 8.28527 -89.3634
462 1 11.0901 8.28527 -89.3634
464 1 14.2791 8.28527 -89.3634
466 1 17.4681 8.28527 -89.3634
468 1 20.6571 8.28527 -89.3634
470 1 23.8461 8.28527 -89.3634
472 1 27.0351 8.28527 -89.3634
474 1 30.2241 8.28527 -89.3634
476 1 33.4131 8.28527 -89.3634
478 1 36.6021 8.28527 -89.3634
480 1 39.7911 8.28527 -89.3634
482 1 42.9801 8.28527 -89.3634
484 1 46.1691 8.28527 -89.3634
486 1 49.3581 8.28527 -89.3634
488 1 52.5471 8.28527 -89.3634
490 1 55.7361 8.28527 -89.3634
492 1 58.9251 8.28527 -89.3634
494 1 62.1141 8.28527 -89.3634
496 1 65.3031 8.28527 -89.3634
498 1 68.4921 8.28527 -89.3634
500 1 71.6811 8.28527 -89.3634
502 1 74.8701 8.28527 -89.3634
504 1 78.0591 8.28527 -89.3634
506 1 81.2481 8.28527 -89.3634
508 1 84.4371 8.28527 -89.3634
510 1 87.6261 8.28527 -89.3634
512 1 90.8151 8.28527 -89.3634
514 1 94.0041 8.28527 -89.3634
516 1 97.1931 8.28527 -89.3634
518 1 100.382 8.28527 -89.3634
520 1 103.571 8.28527 -89.3634
522 1 106.76 8.28527 -89.3634
524 1 109.949 8.28527 -89.3634
526 1 113.138 8.28527 -89.3634
528 1 116.327 8.28527 -89.3634
530 1 119.516 8.28527 -89.3634
531 1 -89.3634 11.047 -89.3634
533 1 -86.1744 11.047 -89.3634
535 1 -82.9854 11.047 -89.3634
537 1 -79.7964 11.047 -89.3634
539 1 -76.6074 11.047 -89.3634
541 1 -73.4184 11.047 -89.3634
543 1 -70.2294 11.047 -89.3634
545 1 -67.0404 11.047 -89.3634
547 1 -63.8514 11.047 -89.3634
549 1 -60.6624 11.047 -89.3634
551 1 -57.4734 11.047 -89.3634
553 1 -54.2844 11.047 -89.3634
555 1 -51.0954 11.047 -89.3634
557 1 -47.9064 11.047 -89.3634
559 1 -44.7174 11.047 -89.3634
561 1 -41.5284 11.047 -89.3634
563 1 -38.3394 11.047 -89.3634
565 1 -35.1504 11.047 -89.3634
567 1 -31.9614 11.047 -89.3634
569 1 -28.7724 11.047 -89.3634
571 1 -25.5834 11.047 -89.3634
573 1 -22.3944 11.047 -89.3634
575 1 -19.2054 11.047 -89.3634
577 1 -16.0164 11.047 -89.3634
579 1 -12.8274 11.047 -89.3634
581 1 -9.63844 11.047 -89.3634
583 1 -6.44944 11.047 -89.3634
585 1 -3.26044 11.047 -89.3634
587 1 -0.071441 11.047 -89.3634
589 1 3.11756 11.047 -89.3634
591 1 6.30656 11.047 -89.3634
593 1 9.49556 11.047 -89.3634
595 1 12.6846 11.047 -89.3634
597 1 15.8736 11.047 -89.3634
599 1 19.0626 11.047 -89.3634
601 1 22.2516 11.047 -89.3634
603 1 25.4406 11.047 -89.3634
605 1 28.6296 11.047 -89.3634
607 1 31.8186 11.047 -89.3634
609 1 35.0076 11.047 -89.3634
611 1 38.1966 11.047 -89.3634
613 1 41.3856 11.047 -89.3634
615 1 44.5746 11.047 -89.3634
617 1 47.7636 11.047 -89.3634
619 1 50.9526 11.047 -89.3634
621 1 54.1416 11.047 -89.3634
623 1 57.3306 11.047 -89.3634
625 1 60.5196 11.047 -89.3634
627 1 63.7086 11.047 -89.3634
629 1 66.8976 11.047 -89.3634
631 1 70.0866 11.047 -89.3634
633 1 73.2756 11.047 -89.3634
635 1 76.4646 11.047 -89.3634
637 1 79.6536 11.047 -89.3634
639 1 82.8426 11.047 -89.3634
641 1 86.0316 11.047 -89.3634
643 1 89.2206 11.047 -89.3634
645 1 92.4096 11.047 -89.3634
647 1 95.5986 11.047 -89.3634
649 1 98.7876 11.047 -89.3634
651 1 101.977 11.047 -89.3634
653 1 105.166 11.047 -89.3634
655 1 108.355 11.047 -89.3634
657 1 111.544 11.047 -89.3634
659 1 114.733 11.047 -89.3634
661 1 117.922 11.047 -89.3634
663 1 121.111 11.047 -89.3634
665 1 -87.7689 13.8088 -89.3634
667 1 -84.5799 13.8088 -89.3634
669 1 -81.3909 13.8088 -89.3634
671 1 -78.2019 13.8088 -89.3634
673 1 -75.0129 13.8088 -89.3634
675 1 -71.8239 13.8088 -89.3634
677 1 -68.6349 13.8088 -89.3634
679 1 -65.4459 13.8088 -89.3634
681 1 -62.2569 13.8088 -89.3634
683 1 -59.0679 13.8088 -89.3634
685 1 -55.8789 13.8088 -89.3634
687 1 -52.6899 13.8088 -89.3634
689 1 -49.5009 13.8088 -89.3634
691 1 -46.3119 13.8088 -89.3634
693 1 -43.1229 13.8088 -89.3634
695 1 -39.9339 13.8088 -89.3634
697 1 -36.7449 13.8088 -89.3634
699 1 -33.5559 13.8088 -89.3634
701 1 -30.3669 13.8088 -89.3634
703 1 -27.1779 13.8088 -89.3634
705 1 -23.9889 13.8088 -89.3634
707 1 -20.7999 13.8088 -89.3634
709 1 -17.6109 13.8088 -89.3634
711 1 -14.4219 13.8088 -89.3634
713 1 -11.2329 13.8088 -89.3634
715 1 -8.04394 13.8088 -89.3634
717 1 -4.85494 13.8088 -89.3634
719 1 -1.66594 13.8088 -89.3634
721 1 1.52306 13.8088 -89.3634
723 1 4.71206 13.8088 -89.3634
725 1 7.90106 13.8088 -89.3634
727 1 11.0901 13.8088 -89.3634
729 1 14.2791 13.8088 -89.3634
731 1 17.4681 13.8088 -89.3634
733 1 20.6571 13.8088 -89.3634
735 1 23.8461 13.8088 -89.3634
737 1 27.0351 13.8088 -89.3634
739 1 30.2241 13.8088 -89.3634
741 1 33.4131 13.8088 -89.3634
743 1 36.6021 13.8088 -89.3634
745 1 39.7911 13.8088 -89.3634
747 1 42.9801 13.8088 -89.3634
749 1 46.1691 13.8088 -89.3634
751 1 49.3581 13.8088 -89.3634
753 1 52.5471 13.8088 -89.3634
755 1 55.7361 13.8088 -89.3634
757 1 58.9251 13.8088 -89.3634
759 1 62.1141 13.8088 -89.3634
761 1 65.3031 13.8088 -89.3634
763 1 68.4921 13.8088 -89.3634
765 1 71.6811 13.8088 -89.3634
767 1 74.8701 13.8088 -89.3634
769 1 78.0591 13.8088 -89.3634
771 1 81.2481 13.8088 -89.3634
773 1 84.4371 13.8088 -89.3634
775 1 87.6261 13.8088 -89.3634
777 1 90.8151 13.8088 -89.3634
779 1 94.0041 13.8088 -89.3634
781 1 97.1931 13.8088 -89.3634
783 1 100.382 13.8088 -89.3634
785 1 103.571 13.8088 -89.3634
787 1 106.76 13.8088 -89.3634
789 1 109.949 13.8088 -89.3634
791 1 113.138 13.8088 -89.3634
793 1 116.327 13.8088 -89.3634
795 1 119.516 13.8088 -89.3634
796 1 -89.3634 16.5705 -89.3634
798 1 -86.1744 16.5705 -89.3634
800 1 -82.9854 16.5705 -89.3634
802 1 -79.7964 16.5705 -89.3634
804 1 -76.6074 16.5705 -89.3634
806 1 -73.4184 16.5705 -89.3634
808 1 -70.2294 16.5705 -89.3634
810 1 -67.0404 16.5705 -89.3634
812 1 -63.8514 16.5705 -89.3634
814 1 -60.6624 16.5705 -89.3634
816 1 -57.4734 16.5705 -89.3634
818 1 -54.2844 16.5705 -89.3634
820 1 -51.0954 16.5705 -89.3634
822 1 -47.9064 16.5705 -89.3634
824 1 -44.7174 16.5705 -89.3634
826 1 -41.5284 16.5705 -89.3634
828 1 -38.3394 16.5705 -89.3634
830 1 -35.1504 16.5705 -89.3634
832 1 -31.9614 16.5705 -89.3634
834 1 -28.7724 16.5705 -89.3634
836 1 -25.5834 16.5705 -89.3634
838 1 -22.3944 16.5705 -89.3634
840 1 -19.2054 16.5705 -89.3634
842 1 -16.0164 16.5705 -89.3634
844 1 -12.8274 16.5705 -89.3634
846 1 -9.63844 16.5705 -89.3634
848 1 -6.44944 16.5705 -89.3634
850 1 -3.26044 16.5705 -89.3634
852 1 -0.071441 16.5705 -89.3634
854 1 3.11756 16.5705 -89.3634
856 1 6.30656 16.5705 -89.3634
858 1 9.49556 16.5705 -89.3634
860 1 12.6846 16.5705 -89.3634
862 1 15.8736 16.5705 -89.3634
864 1 19.0626 16.5705 -89.3634
866 1 22.2516 16.5705 -89.3634
868 1 25.4406 16.5705 -89.3634
870 1 28.6296 16.5705 -89.3634
872 1 31.8186 16.5705 -89.3634
874 1 35.0076 16.5705 -89.3634
876 1 38.1966 16.5705 -89.3634
878 1 41.3856 16.5705 -89.3634
880 1 44.5746 16.5705 -89.3634
882 1 47.7636 16.5705 -89.3634
884 1 50.9526 16.5705 -89.3634
886 1 54.1416 16.5705 -89.3634
888 1 57.3306 16.5705 -89.3634
890 1 60.5196 16.5705 -89.3634
892 1 63.7086 16.5705 -89.3634
894 1 66.8976 16.5705 -89.3634
896 1 70.0866 16.5705 -89.3634
898 1 73.2756 16.5705 -89.3634
900 1 76.4646 16.5705 -89.3634
902 1 79.6536 16.5705 -89.3634
904 1 82.8426 16.5705 -89.3634
906 1 86.0316 16.5705 -89.3634
908 1 89.2206 16.5705 -89.3634
910 1 92.4096 16.5705 -89.3634
912 1 95.5986 16.5705 -89.3634
914 1 98.7876 16.5705 -89.3634
916 1 101.977 16.5705 -89.3634
918 1 105.166 16.5705 -89.3634
920 1 108.355 16.5705 -89.3634
922 1 111.544 16.5705 -89.3634
924 1 114.733 16.5705 -89.3634
926 1 117.922 16.5705 -89.3634
928 1 121.111 16.5705 -89.3634
930 1 -87.7689 19.3323 -89.3634
932 1 -84.5799 19.3323 -89.3634
934 1 -81.3909 19.3323 -89.3634
936 1 -78.2019 19.3323 -89.3634
938 1 -75.0129 19.3323 -89.3634
940 1 -71.8239 19.3323 -89.3634
942 1 -68.6349 19.3323 -89.3634
944 1 -65.4459 19.3323 -89.3634
946 1 -62.2569 19.3323 -89.3634
948 1 -59.0679 19.3323 -89.3634
950 1 -55.8789 19.3323 -89.3634
952 1 -52.6899 19.3323 -89.3634
954 1 -49.5009 19.3323 -89.3634
956 1 -46.3119 19.3323 -89.3634
958 1 -43.1229 19.3323 -89.3634
960 1 -39.9339 19.3323 -89.3634
962 1 -36.7449 19.3323 -89.3634
964 1 -33.5559 19.3323 -89.3634
966 1 -30.3669 19.3323 -89.3634
968 1 -27.1779 19.3323 -89.3634
970 1 -23.9889 19.3323 -89.3634
972 1 -20.7999 19.3323 -89.3634
974 1 -17.6109 19.3323 -89.3634
976 1 -14.4219 19.3323 -89.3634
978 1 -11.2329 19.3323 -89.3634
980 1 -8.04394 19.3323 -89.3634
982 1 -4.85494 19.3323 -89.3634
984 1 -1.66594 19.3323 -89.3634
986 1 1.52306 19.3323 -89.3634
988 1 4.71206 19.3323 -89.3634
990 1 7.90106 19.3323 -89.3634
992 1 11.0901 19.3323 -89.3634
994 1 14.2791 19.3323 -89.3634
996 1 17.4681 19.3323 -89.3634
998 1 20.6571 19.3323 -89.3634
1000 1 23.8461 19.3323 -89.3634
1002 1 27.0351 19.3323 -89.3634
1004 1 30.2241 19.3323 -89.3634
1006 1 33.4131 19.3323 -89.3634
1008 1 36.6021 19.3323 -89.3634
1010 1 39.7911 19.3323 -89.3634
1012 1 42.9801 19.3323 -89.3634
1014 1 46.1691 19.3323 -89.3634
1016 1 49.3581 19.3323 -89.3634
1018 1 52.5471 19.3323 -89.3634
1020 1 55.7361 19.3323 -89.3634
1022 1 58.9251 19.3323 -89.3634
1024 1 62.1141 19.3323 -89.3634
1026 1 65.3031 19.3323 -89.3634
1028 1 68.4921 19.3323 -89.3634
1030 1 71.6811 19.3323 -89.3634
1032 1 74.8701 19.3323 -89.3634
1034 1 78.0591 19.3323 -89.3634
1036 1 81.2481 19.3323 -89.3634
1038 1 84.4371 19.3323 -89.3634
1040 1 87.6261 19.3323 -89.3634
1042 1 90.8151 19.3323 -89.3634
1044 1 94.0041 19.3323 -89.3634
1046 1 97.1931 19.3323 -89.3634
1048 1 100.382 19.3323 -89.3634
1050 1 103.571 19.3323 -89.3634
1052 1 106.76 19.3323 -89.3634
1054 1 109.949 19.3323 -89.3634
1056 1 113.138 19.3323 -89.3634
1058 1 116.327 19.3323 -89.3634
1060 1 119.516 19.3323 -89.3634
1061 1 -89.3634 22.094 -89.3634
1063 1 -86.1744 22.094 -89.3634
1065 1 -82.9854 22.094 -89.3634
1067 1 -79.7964 22.094 -89.3634
1069 1 -76.6074 22.094 -89.3634
1071 1 -73.4184 22.094 -89.3634
1073 1 -70.2294 22.094 -89.3634
1075 1 -67.0404 22.094 -89.3634
1077 1 -63.8514 22.094 -89.3634
1079 1 -60.6624 22.094 -89.3634
1081 1 -57.4734 22.094 -89.3634
1083 1 -54.2844 22.094 -89.3634
1085 1 -51.0954 22.094 -89.3634
1087 1 -47.9064 22.094 -89.3634
1089 1 -44.7174 22.094 -89.3634
1091 1 -41.5284 22.094 -89.3634
1093 1 -38.3394 22.094 -89.3634
1095 1 -35.1504 22.094 -89.3634
1097 1 -31.9614 22.094 -89.3634
1099 1 -28.7724 22.094 -89.3634
1101 1 -25.5834 22.094 -89.3634
1103 1 -22.3944 22.094 -89.3634
1105 1 -19.2054 22.094 -89.3634
1107 1 -16.0164 22.094 -89.3634
1109 1 -12.8274 22.094 -89.3634
1111 1 -9.63844 22.094 -89.3634
1113 1 -6.44944 22.094 -89.3634
1115 1 -3.26044 22.094 -89.3634
1117 1 -0.071441 22.094 -89.3634
1119 1 3.11756 22.094 -89.3634
1121 1 6.30656 22.094 -89.3634
1123 1 9.49556 22.094 -89.3634
1125 1 12.6846 22.094 -89.3634
1127 1 15.8736 22.094 -89.3634
1129 1 19.0626 22.094 -89.3634
1131 1 22.2516 22.094 -89.3634
1133 1 25.4406 22.094 -89.3634
1135 1 28.6296 22.094 -89.3634
1137 1 31.8186 22.094 -89.3634
1139 1 35.0076 22.094 -89.3634
1141 1 38.1966 22.094 -89.3634
1143 1 41.3856 22.094 -89.3634
1145 1 44.5746 22.094 -89.3634
1147 1 47.7636 22.094 -89.3634
1149 1 50.9526 22.094 -89.3634
1151 1 54.1416 22.094 -89.3634
1153 1 57.3306 22.094 -89.3634
1155 1 60.5196 22.094 -89.3634
1157 1 63.7086 22.094 -89.3634
1159 1 66.8976 22.094 -89.3634
1161 1 70.0866 22.094 -89.3634
1163 1 73.2756 22.094 -89.3634
1165 1 76.4646 22.094 -89.3634
1167 1 79.6536 22.094 -89.3634
1169 1 82.8426 22.094 -89.3634
1171 1 86.0316 22.094 -89.3634
1173 1 89.2206 22.094 -89.3634
1175 1 92.4096 22.094 -89.3634
1177 1 95.5986 22.094 -89.3634
1179 1 98.7876 22.094 -89.3634
1181 1 101.977 22.094 -89.3634
1183 1 105.166 22.094 -89.3634
1185 1 108.355 22.094 -89.3634
1187 1 111.544 22.094 -89.3634
1189 1 114.733 22.094 -89.3634
1191 1 117.922 22.094 -89.3634
1193 1 121.111 22.094 -89.3634
1195 1 -87.7689 24.8558 -89.3634
1197 1 -84.5799 24.8558 -89.3634
1199 1 -81.3909 24.8558 -89.3634
1201 1 -78.2019 24.8558 -89.3634
1203 1 -75.0129 24.8558 -89.3634
1205 1 -71.8239 24.8558 -89.3634
1207 1 -68.6349 24.8558 -89.3634
1209 1 -65.4459 24.8558 -89.3634
1211 1 -62.2569 24.8558 -89.3634
1213 1 -59.0679 24.8558 -89.3634
1215 1 -55.8789 24.8558 -89.3634
1217 1 -52.6899 24.8558 -89.3634
1219 1 -49.5009 24.8558 -89.3634
1221 1 -46.3119 24.8558 -89.3634
1223 1 -43.1229 24.8558 -89.3634
1225 1 -39.9339 24.8558 -89.3634
1227 1 -36.7449 24.8558 -89.3634
1229 1 -33.5559 24.8558 -89.3634
1231 1 -30.3669 24.8558 -89.3634
1233 1 -27.1779 24.8558 -89.3634
1235 1 -23.9889 24.8558 -89.3634
1237 1 -20.7999 24.8558 -89.3634
1239 1 -17.6109 24.8558 -89.3634
1241 1 -14.4219 24.8558 -89.3634
1243 1 -11.2329 24.8558 -89.3634
1245 1 -8.04394 24.8558 -89.3634
1247 1 -4.85494 24.8558 -89.3634
1249 1 -1.66594 24.8558 -89.3634
1251 1 1.52306 24.8558 -89.3634
1253 1 4.71206 24.8558 -89.3634
1255 1 7.90106 24.8558 -89.3634
1257 1 11.0901 24.8558 -89.3634
1259 1 14.2791 24.8558 -89.3634
1261 1 17.4681 24.8558 -89.3634
1263 1 20.6571 24.8558 -89.3634
1265 1 23.8461 24.8558 -89.3634
1267 1 27.0351 24.8558 -89.3634
1269 1 30.2241 24.8558 -89.3634
1271 1 33.4131 24.8558 -89.3634
1273 1 36.6021 24.8558 -89.3634
1275 1 39.7911 24.8558 -89.3634
1277 1 42.9801 24.8558 -89.3634
1279 1 46.1691 24.8558 -89.3634
1281 1 49.3581 24.8558 -89.3634
1283 1 52.5471 24.8558 -89.3634
1285 1 55.7361 24.8558 -89.3634
1287 1 58.9251 24.8558 -89.3634
1289 1 62.1141 24.8558 -89.3634
1291 1 65.3031 24.8558 -89.3634
1293 1 68.4921 24.8558 -89.3634
1295 1 71.6811 24.8558 -89.3634
1297 1 74.8701 24.8558 -89.3634
1299 1 78.0591 24.8558 -89.3634
1301 1 81.2481 24.8558 -89.3634
1303 1 84.4371 24.8558 -89.3634
1305 1 87.6261 24.8558 -89.3634
1307 1 90.8151 24.8558 -89.3634
1309 1 94.0041 24.8558 -89.3634
1311 1 97.1931 24.8558 -89.3634
1313 1 100.382 24.8558 -89.3634
1315 1 103.571 24.8558 -89.3634
1317 1 106.76 24.8558 -89.3634
1319 1 109.949 24.8558 -89.3634
1321 1 113.138 24.8558 -89.3634
1323 1 116.327 24.8558 -89.3634
1325 1 119.516 24.8558 -89.3634
1326 1 -89.3634 27.6176 -89.3634
1328 1 -86.1744 27.6176 -89.3634
1330 1 -82.9854 27.6176 -89.3634
1332 1 -79.7964 27.6176 -89.3634
1334 1 -76.6074 27.6176 -89.3634
1336 1 -73.4184 27.6176 -89.3634
1338 1 -70.2294 27.6176 -89.3634
1340 1 -67.0404 27.6176 -89.3634
1342 1 -63.8514 27.6176 -89.3634
1344 1 -60.6624 27.6176 -89.3634
1346 1 -57.4734 27.6176 -89.3634
1348 1 -54.2844 27.6176 -89.3634
1350 1 -51.0954 27.6176 -89.3634
1352 1 -47.9064 27.6176 -89.3634
1354 1 -44.7174 27.6176 -89.3634
1356 1 -41.5284 27.6176 -89.3634
1358 1 -38.3394 27.6176 -89.3634
1360 1 -35.1504 27.6176 -89.3634
1362 1 -31.9614 27.6176 -89.3634
1364 1 -28.7724 27.6176 -89.3634
1366 1 -25.5834 27.6176 -89.3634
1368 1 -22.3944 27.6176 -89.3634
1370 1 -19.2054 27.6176 -89.3634
1372 1 -16.0164 27.6176 -89.3634
1374 1 -12.8274 27.6176 -89.3634
1376 1 -9.63844 27.6176 -89.3634
1378 1 -6.44944 27.6176 -89.3634
1380 1 -3.26044 27.6176 -89.3634
1382 1 -0.071441 27.6176 -89.3634
1384 1 3.11756 27.6176 -89.3634
1386 1 6.30656 27.6176 -89.3634
1388 1 9.49556 27.6176 -89.3634
1390 1 12.6846 27.6176 -89.3634
1392 1 15.8736 27.6176 -89.3634
1394 1 19.0626 27.6176 -89.3634
1396 1 22.2516 27.6176 -89.3634
1398 1 25.4406 27.6176 -89.3634
1400 1 28.6296 27.6176 -89.3634
1402 1 31.8186 27.6176 -89.3634
1404 1 35.0076 27.6176 -89.3634
1406 1 38.1966 27.6176 -89.3634
1408 1 41.3856 27.6176 -89.3634
1410 1 44.5746 27.6176 -89.3634
1412 1 47.7636 27.6176 -89.3634
1414 1 50.9526 27.6176 -89.3634
1416 1 54.1416 27.6176 -89.3634
1418 1 57.3306 27.6176 -89.3634
1420 1 60.5196 27.6176 -89.3634
1422 1 63.7086 27.6176 -89.3634
1424 1 66.8976 27.6176 -89.3634
1426 1 70.0866 27.6176 -89.3634
1428 1 73.2756 27.6176 -89.3634
1430 1 76.4646 27.6176 -89.3634
1432 1 79.6536 27.6176 -89.3634
1434 1 82.8426 27.6176 -89.3634
1436 1 86.0316 27.6176 -89.3634
1438 1 89.2206 27.6176 -89.3634
1440 1 92.4096 27.6176 -89.3634
1442 1 95.5986 27.6176 -89.3634
1444 1 98.7876 27.6176 -89.3634
1446 1 101.977 27.6176 -89.3634
1448 1 105.166 27.6176 -89.3634
1450 1 108.355 27.6176 -89.3634
1452 1 111.544 27.6176 -89.3634
1454 1 114.733 27.6176 -89.3634
1456 1 117.922 27.6176 -89.3634
1458 1 121.111 27.6176 -89.3634
1460 1 -87.7689 30.3793 -89.3634
1462 1 -84.5799 30.3793 -89.3634
1464 1 -81.3909 30.3793 -89.3634
1466 1 -78.2019 30.3793 -89.3634
1468 1 -75.0129 30.3793 -89.3634
1470 1 -71.8239 30.3793 -89.3634
1472 1 -68.6349 30.3793 -89.3634
1474 1 -65.4459 30.3793 -89.3634
1476 1 -62.2569 30.3793 -89.3634
1478 1 -59.0679 30.3793 -89.3634
1480 1 -55.8789 30.3793 -89.3634
1482 1 -52.6899 30.3793 -89.3634
1484 1 -49.5009 30.3793 -89.3634
1486 1 -46.3119 30.3793 -89.3634
1488 1 -43.1229 30.3793 -89.3634
1490 1 -39.9339 30.3793 -89.3634
1492 1 -36.7449 30.3793 -89.3634
1494 1 -33.5559 30.3793 -89.3634
1496 1 -30.3669 30.3793 -89.3634
1498 1 -27.1779 30.3793 -89.3634
1500 1 -23.9889 30.3793 -89.3634
1502 1 -20.7999 30.3793 -89.3634
1504 1 -17.6109 30.3793 -89.3634
1506 1 -14.4219 30.3793 -89.3634
1508 1 -11.2329 30.3793 -89.3634
1510 1 -8.04394 30.3793 -89.3634
1512 1 -4.85494 30.3793 -89.3634
1514 1 -1.66594 30.3793 -89.3634
1516 1 1.52306 30.3793 -89.3634
1518 1 4.71206 30.3793 -89.3634
1520 1 7.90106 30.3793 -89.3634
1522 1 11.0901 30.3793 -89.3634
1524 1 14.2791 30.3793 -89.3634
1526 1 17.4681 30.3793 -89.3634
1528 1 20.6571 30.3793 -89.3634
1530 1 23.8461 30.3793 -89.3634
1532 1 27.0351 30.3793 -89.3634
1534 1 30.2241 30.3793 -89.3634
1536 1 33.4131 30.3793 -89.3634
1538 1 36.6021 30.3793 -89.3634
1540 1 39.7911 30.3793 -89.3634
1542 1 42.9801 30.3793 -89.3634
1544 1 46.1691 30.3793 -89.3634
1546 1 49.3581 30.3793 -89.3634
1548 1 52.5471 30.3793 -89.3634
1550 1 55.7361 30.3793 -89.3634
1552 1 58.9251 30.3793 -89.3634
1554 1 62.1141 30.3793 -89.3634
1556 1 65.3031 30.3793 -89.3634
1558 1 68.4921 30.3793 -89.3634
1560 1 71.6811 30.3793 -89.3634
1562 1 74.8701 30.3793 -89.3634
1564 1 78.0591 30.3793 -89.3634
1566 1 81.2481 30.3793 -89.3634
1568 1 84.4371 30.3793 -89.3634
1570 1 87.6261 30.3793 -89.3634
1572 1 90.8151 30.3793 -89.3634
1574 1 94.0041 30.3793 -89.3634
1576 1 97.1931 30.3793 -89.3634
1578 1 100.382 30.3793 -89.3634
1580 1 103.571 30.3793 -89.3634
1582 1 106.76 30.3793 -89.3634
1584 1 109.949 30.3793 -89.3634
1586 1 113.138 30.3793 -89.3634
1588 1 116.327 30.3793 -89.3634
1590 1 119.516 30.3793 -89.3634
1591 1 -89.3634 33.1411 -89.3634
1592 1 -86.1744 33.1411 -89.3634
1593 1 -82.9854 33.1411 -89.3634
1594 1 -79.7964 33.1411 -89.3634
1595 1 -76.6074 33.1411 -89.3634
1596 1 -73.4184 33.1411 -89.3634
1597 1 -70.2294 33.1411 -89.3634
1598 1 -67.0404 33.1411 -89.3634
1599 1 -63.8514 33.1411 -89.3634
1600 1 -60.6624 33.1411 -89.3634
1601 1 -57.4734 33.1411 -89.3634
1602 1 -54.2844 33.1411 -89.3634
1603 1 -51.0954 33.1411 -89.3634
1604 1 -47.9064 33.1411 -89.3634
1605 1 -44.7174 33.1411 -89.3634
1606 1 -41.5284 33.1411 -89.3634
1607 1 -38.3394 33.1411 -89.3634
1608 1 -35.1504 33.1411 -89.3634
1609 1 -31.9614 33.1411 -89.3634
1610 1 -28.7724 33.1411 -89.3634
1611 1 -25.5834 33.1411 -89.3634
1612 1 -22.3944 33.1411 -89.3634
1613 1 -19.2054 33.1411 -89.3634
1614 1 -16.0164 33.1411 -89.3634
1615 1 -12.8274 33.1411 -89.3634
1616 1 -9.63844 33.1411 -89.3634
1617 1 -6.44944 33.1411 -89.3634
1618 1 -3.26044 33.1411 -89.3634
1619 1 -0.071441 33.1411 -89.3634
1620 1 3.11756 33.1411 -89.3634
1621 1 6.30656 33.1411 -89.3634
1622 1 9.49556 33.1411 -89.3634
1623 1 12.6846 33.1411 -89.3634
1624 1 15.8736 33.1411 -89.3634
1625 1 19.0626 33.1411 -89.3634
1626 1 22.2516 33.1411 -89.3634
1627 1 25.4406 33.1411 -89.3634
1628 1 28.6296 33.1411 -89.3634
1629 1 31.8186 33.1411 -89.3634
1630 1 35.0076 33.1411 -89.3634
1631 1 38.1966 33.1411 -89.3634
1632 1 41.3856 33.1411 -89.3634
1633 1 44.5746 33.1411 -89.3634
1634 1 47.7636 33.1411 -89.3634
1635 1 50.9526 33.1411 -89.3634
1636 1 54.1416 33.1411 -89.3634
1637 1 57.3306 33.1411 -89.3634
1638 1 60.5196 33.1411 -89.3634
1639 1 63.7086 33.1411 -89.3634
1640 1 66.8976 33.1411 -89.3634
1641 1 70.0866 33.1411 -89.3634
1642 1 73.2756 33.1411 -89.3634
1643 1 76.4646 33.1411 -89.3634
1644 1 79.6536 33.1411 -89.3634
1645 1 82.8426 33.1411 -89.3634
1646 1 86.0316 33.1411 -89.3634
1647 1 89.2206 33.1411 -89.3634
1648 1 92.4096 33.1411 -89.3634
1649 1 95.5986 33.1411 -89.3634
1650 1 98.7876 33.1411 -89.3634
1651 1 101.977 33.1411 -89.3634
1652 1 105.166 33.1411 -89.3634
1653 1 108.355 33.1411 -89.3634
1654 1 111.544 33.1411 -89.3634
1655 1 114.733 33.1411 -89.3634
1656 1 117.922 33.1411 -89.3634
1657 1 121.111 33.1411 -89.3634
2 1 -87.8009 1.01668 -81.0788
4 1 -84.6119 1.01668 -81.0788
6 1 -81.4229 1.01668 -81.0788
8 1 -78.2339 1.01668 -81.0788
10 1 -75.0449 1.01668 -81.0788
12 1 -71.8559 1.01668 -81.0788
14 1 -68.6669 1.01668 -81.0788
16 1 -65.4779 1.01668 -81.0788
18 1 -62.2889 1.01668 -81.0788
20 1 -59.0999 1.01668 -81.0788
22 1 -55.9109 1.01668 -81.0788
24 1 -52.7219 1.01668 -81.0788
26 1 -49.5329 1.01668 -81.0788
28 1 -46.3439 1.01668 -81.0788
30 1 -43.1549 1.01668 -81.0788
32 1 -39.9659 1.01668 -81.0788
34 1 -36.7769 1.01668 -81.0788
36 1 -33.5879 1.01668 -81.0788
38 1 -30.3989 1.01668 -81.0788
40 1 -27.2099 1.01668 -81.0788
42 1 -24.0209 1.01668 -81.0788
44 1 -20.8319 1.01668 -81.0788
46 1 -17.6429 1.01668 -81.0788
48 1 -14.4539 1.01668 -81.0788
50 1 -11.2649 1.01668 -81.0788
52 1 -8.07593 1.01668 -81.0788
54 1 -4.88693 1.01668 -81.0788
56 1 -1.69793 1.01668 -81.0788
58 1 1.49107 1.01668 -81.0788
60 1 4.68007 1.01668 -81.0788
62 1 7.86907 1.01668 -81.0788
64 1 11.0581 1.01668 -81.0788
66 1 14.2471 1.01668 -81.0788
68 1 17.4361 1.01668 -81.0788
70 1 20.6251 1.01668 -81.0788
72 1 23.8141 1.01668 -81.0788
74 1 27.0031 1.01668 -81.0788
76 1 30.1921 1.01668 -81.0788
78 1 33.3811 1.01668 -81.0788
80 1 36.5701 1.01668 -81.0788
82 1 39.7591 1.01668 -81.0788
84 1 42.9481 1.01668 -81.0788
86 1 46.1371 1.01668 -81.0788
88 1 49.3261 1.01668 -81.0788
90 1 52.5151 1.01668 -81.0788
92 1 55.7041 1.01668 -81.0788
94 1 58.8931 1.01668 -81.0788
96 1 62.0821 1.01668 -81.0788
98 1 65.2711 1.01668 -81.0788
100 1 68.4601 1.01668 -81.0788
102 1 71.6491 1.01668 -81.0788
104 1 74.8381 1.01668 -81.0788
106 1 78.0271 1.01668 -81.0788
108 1 81.2161 1.01668 -81.0788
110 1 84.4051 1.01668 -81.0788
112 1 87.5941 1.01668 -81.0788
114 1 90.7831 1.01668 -81.0788
116 1 93.9721 1.01668 -81.0788
118 1 97.1611 1.01668 -81.0788
120 1 100.35 1.01668 -81.0788
122 1 103.539 1.01668 -81.0788
124 1 106.728 1.01668 -81.0788
126 1 109.917 1.01668 -81.0788
128 1 113.106 1.01668 -81.0788
130 1 116.295 1.01668 -81.0788
132 1 119.484 1.01668 -81.0788
134 1 -89.3633 3.68225 -81.096
136 1 -86.2064 3.77843 -81.0788
138 1 -83.0174 3.77843 -81.0788
140 1 -79.8284 3.77843 -81.0788
142 1 -76.6394 3.77843 -81.0788
144 1 -73.4504 3.77843 -81.0788
146 1 -70.2614 3.77843 -81.0788
148 1 -67.0724 3.77843 -81.0788
150 1 -63.8834 3.77843 -81.0788
152 1 -60.6944 3.77843 -81.0788
154 1 -57.5054 3.77843 -81.0788
156 1 -54.3164 3.77843 -81.0788
158 1 -51.1274 3.77843 -81.0788
160 1 -47.9384 3.77843 -81.0788
162 1 -44.7494 3.77843 -81.0788
164 1 -41.5604 3.77843 -81.0788
166 1 -38.3714 3.77843 -81.0788
168 1 -35.1824 3.77843 -81.0788
170 1 -31.9934 3.77843 -81.0788
172 1 -28.8044 3.77843 -81.0788
174 1 -25.6154 3.77843 -81.0788
176 1 -22.4264 3.77843 -81.0788
178 1 -19.2374 3.77843 -81.0788
180 1 -16.0484 3.77843 -81.0788