ITEM: TIMESTEP
15000
ITEM: NUMBER OF ATOMS
14121
ITEM: BOX BOUNDS ss ss ss
-5.7322167571492180e+01 4.9572427329994605e+02
-1.0231754111503553e+00 3.5138226766140072e+01
-5.7307731270809384e+01 3.4922339179699259e+02
ITEM: ATOMS id type x y z
1 1 -57.3587 0 -57.3587
3 1 -54.1697 0 -57.3587
5 1 -50.9807 0 -57.3587
7 1 -47.7917 0 -57.3587
9 1 -44.6027 0 -57.3587
11 1 -41.4137 0 -57.3587
13 1 -38.2247 0 -57.3587
15 1 -35.0357 0 -57.3587
17 1 -31.8467 0 -57.3587
19 1 -28.6577 0 -57.3587
21 1 -25.4687 0 -57.3587
23 1 -22.2797 0 -57.3587
25 1 -19.0907 0 -57.3587
27 1 -15.9017 0 -57.3587
29 1 -12.7127 0 -57.3587
31 1 -9.52372 0 -57.3587
33 1 -6.33472 0 -57.3587
35 1 -3.14572 0 -57.3587
37 1 0.0432755 0 -57.3587
39 1 3.23228 0 -57.3587
41 1 6.42128 0 -57.3587
43 1 9.61028 0 -57.3587
45 1 12.7993 0 -57.3587
47 1 15.9883 0 -57.3587
49 1 19.1773 0 -57.3587
51 1 22.3663 0 -57.3587
53 1 25.5553 0 -57.3587
55 1 28.7443 0 -57.3587
57 1 31.9333 0 -57.3587
59 1 35.1223 0 -57.3587
61 1 38.3113 0 -57.3587
63 1 41.5003 0 -57.3587
65 1 44.6893 0 -57.3587
67 1 47.8783 0 -57.3587
69 1 51.0673 0 -57.3587
71 1 54.2563 0 -57.3587
73 1 57.4453 0 -57.3587
75 1 60.6343 0 -57.3587
77 1 63.8233 0 -57.3587
79 1 67.0123 0 -57.3587
81 1 70.2013 0 -57.3587
83 1 73.3903 0 -57.3587
85 1 76.5793 0 -57.3587
87 1 79.7683 0 -57.3587
89 1 82.9573 0 -57.3587
91 1 86.1463 0 -57.3587
93 1 89.3353 0 -57.3587
95 1 92.5243 0 -57.3587
97 1 95.7133 0 -57.3587
99 1 98.9023 0 -57.3587
101 1 102.091 0 -57.3587
103 1 105.28 0 -57.3587
105 1 108.469 0 -57.3587
107 1 111.658 0 -57.3587
109 1 114.847 0 -57.3587
111 1 118.036 0 -57.3587
113 1 121.225 0 -57.3587
115 1 124.414 0 -57.3587
117 1 127.603 0 -57.3587
119 1 130.792 0 -57.3587
121 1 133.981 0 -57.3587
123 1 137.17 0 -57.3587
125 1 140.359 0 -57.3587
127 1 143.548 0 -57.3587
129 1 146.737 0 -57.3587
131 1 149.926 0 -57.3587
133 1 153.115 0 -57.3587
135 1 -55.7642 2.76176 -57.3587
137 1 -52.5752 2.76176 -57.3587
139 1 -49.3862 2.76176 -57.3587
141 1 -46.1972 2.76176 -57.3587
143 1 -43.0082 2.76176 -57.3587
145 1 -39.8192 2.76176 -57.3587
147 1 -36.6302 2.76176 -57.3587
149 1 -33.4412 2.76176 -57.3587
151 1 -30.2522 2.76176 -57.3587
153 1 -27.0632 2.76176 -57.3587
155 1 -23.8742 2.76176 -57.3587
157 1 -20.6852 2.76176 -57.3587
159 1 -17.4962 2.76176 -57.3587
161 1 -14.3072 2.76176 -57.3587
163 1 -11.1182 2.76176 -57.3587
165 1 -7.92922 2.76176 -57.3587
167 1 -4.74022 2.76176 -57.3587
169 1 -1.55122 2.76176 -57.3587
171 1 1.63778 2.76176 -57.3587
173 1 4.82678 2.76176 -57.3587
175 1 8.01578 2.76176 -57.3587
177 1 11.2048 2.76176 -57.3587
179 1 14.3938 2.76176 -57.3587
181 1 17.5828 2.76176 -57.3587
183 1 20.7718 2.76176 -57.3587
185 1 23.9608 2.76176 -57.3587
187 1 27.1498 2.76176 -57.3587
189 1 30.3388 2.76176 -57.3587
191 1 33.5278 2.76176 -57.3587
193 1 36.7168 2.76176 -57.3587
195 1 39.9058 2.76176 -57.3587
197 1 43.0948 2.76176 -57.3587
199 1 46.2838 2.76176 -57.3587
201 1 49.4728 2.76176 -57.3587
203 1 52.6618 2.76176 -57.3587
205 1 55.8508 2.76176 -57.3587
207 1 59.0398 2.76176 -57.3587
209 1 62.2288 2.76176 -57.3587
211 1 65.4178 2.76176 -57.3587
213 1 68.6068 2.76176 -57.3587
215 1 71.7958 2.76176 -57.3587
217 1 74.9848 2.76176 -57.3587
219 1 78.1738 2.76176 -57.3587
221 1 81.3628 2.76176 -57.3587
223 1 84.5518 2.76176 -57.3587
225 1 87.7408 2.76176 -57.3587
227 1 90.9298 2.76176 -57.3587
229 1 94.1188 2.76176 -57.3587
231 1 97.3078 2.76176 -57.3587
233 1 100.497 2.76176 -57.3587
235 1 103.686 2.76176 -57.3587
237 1 106.875 2.76176 -57.3587
239 1 110.064 2.76176 -57.3587
241 1 113.253 2.76176 -57.3587
243 1 116.442 2.76176 -57.3587
245 1 119.631 2.76176 -57.3587
247 1 122.82 2.76176 -57.3587
249 1 126.009 2.76176 -57.3587
251 1 129.198 2.76176 -57.3587
253 1 132.387 2.76176 -57.3587
255 1 135.576 2.76176 -57.3587
257 1 138.765 2.76176 -57.3587
259 1 141.954 2.76176 -57.3587
261 1 145.143 2.76176 -57.3587
263 1 148.332 2.76176 -57.3587
265 1 151.521 2.76176 -57.3587
266 1 -57.3587 5.52351 -57.3587
268 1 -54.1697 5.52351 -57.3587
270 1 -50.9807 5.52351 -57.3587
272 1 -47.7917 5.52351 -57.3587
274 1 -44.6027 5.52351 -57.3587
276 1 -41.4137 5.52351 -57.3587
278 1 -38.2247 5.52351 -57.3587
280 1 -35.0357 5.52351 -57.3587
282 1 -31.8467 5.52351 -57.3587
284 1 -28.6577 5.52351 -57.3587
286 1 -25.4687 5.52351 -57.3587
288 1 -22.2797 5.52351 -57.3587
290 1 -19.0907 5.52351 -57.3587
292 1 -15.9017 5.52351 -57.3587
294 1 -12.7127 5.52351 -57.3587
296 1 -9.52372 5.52351 -57.3587
298 1 -6.33472 5.52351 -57.3587
300 1 -3.14572 5.52351 -57.3587
302 1 0.0432755 5.52351 -57.3587
304 1 3.23228 5.52351 -57.3587
306 1 6.42128 5.52351 -57.3587
308 1 9.61028 5.52351 -57.3587
310 1 12.7993 5.52351 -57.3587
312 1 15.9883 5.52351 -57.3587
314 1 19.1773 5.52351 -57.3587
316 1 22.3663 5.52351 -57.3587
318 1 25.5553 5.52351 -57.3587
320 1 28.7443 5.52351 -57.3587
322 1 31.9333 5.52351 -57.3587
324 1 35.1223 5.52351 -57.3587
326 1 38.3113 5.52351 -57.3587
328 1 41.5003 5.52351 -57.3587
330 1 44.6893 5.52351 -57.3587
332 1 47.8783 5.52351 -57.3587
334 1 51.0673 5.52351 -57.3587
336 1 54.2563 5.52351 -57.3587
338 1 57.4453 5.52351 -57.3587
340 1 60.6343 5.52351 -57.3587
342 1 63.8233 5.52351 -57.3587
344 1 67.0123 5.52351 -57.3587
346 1 70.2013 5.52351 -57.3587
348 1 73.3903 5.52351 -57.3587
350 1 76.5793 5.52351 -57.3587
352 1 79.7683 5.52351 -57.3587
354 1 82.9573 5.52351 -57.3587
356 1 86.1463 5.52351 -57.3587
358 1 89.3353 5.52351 -57.3587
360 1 92.5243 5.52351 -57.3587
362 1 95.7133 5.52351 -57.3587
364 1 98.9023 5.52351 -57.3587
366 1 102.091 5.52351 -57.3587
368 1 105.28 5.52351 -57.3587
370 1 108.469 5.52351 -57.3587
372 1 111.658 5.52351 -57.3587
374 1 114.847 5.52351 -57.3587
376 1 118.036 5.52351 -57.3587
378 1 121.225 5.52351 -57.3587
380 1 124.414 5.52351 -57.3587
382 1 127.603 5.52351 -57.3587
384 1 130.792 5.52351 -57.3587
386 1 133.981 5.52351 -57.3587
388 1 137.17 5.52351 -57.3587
390 1 140.359 5.52351 -57.3587
392 1 143.548 5.52351 -57.3587
394 1 146.737 5.52351 -57.3587
396 1 149.926 5.52351 -57.3587
398 1 153.115 5.52351 -57.3587
400 1 -55.7642 8.28527 -57.3587
402 1 -52.5752 8.28527 -57.3587
404 1 -49.3862 8.28527 -57.3587
406 1 -46.1972 8.28527 -57.3587
408 1 -43.0082 8.28527 -57.3587
410 1 -39.8192 8.28527 -57.3587
412 1 -36.6302 8.28527 -57.3587
414 1 -33.4412 8.28527 -57.3587
416 1 -30.2522 8.28527 -57.3587
418 1 -27.0632 8.28527 -57.3587
420 1 -23.8742 8.28527 -57.3587
422 1 -20.6852 8.28527 -57.3587
424 1 -17.4962 8.28527 -57.3587
426 1 -14.3072 8.28527 -57.3587
428 1 -11.1182 8.28527 -57.3587
430 1 -7.92922 8.28527 -57.3587
432 1 -4.74022 8.28527 -57.3587
434 1 -1.55122 8.28527 -57.3587
436 1 1.63778 8.28527 -57.3587
438 1 4.82678 8.28527 -57.3587
440 1 8.01578 8.28527 -57.3587
442 1 11.2048 8.28527 -57.3587
444 1 14.3938 8.28527 -57.3587
446 1 17.5828 8.28527 -57.3587
448 1 20.7718 8.28527 -57.3587
450 1 23.9608 8.28527 -57.3587
452 1 27.1498 8.28527 -57.3587
454 1 30.3388 8.28527 -57.3587
456 1 33.5278 8.28527 -57.3587
458 1 36.7168 8.28527 -57.3587
460 1 39.9058 8.28527 -57.3587
462 1 43.0948 8.28527 -57.3587
464 1 46.2838 8.28527 -57.3587
466 1 49.4728 8.28527 -57.3587
468 1 52.6618 8.28527 -57.3587
470 1 55.8508 8.28527 -57.3587
472 1 59.0398 8.28527 -57.3587
474 1 62.2288 8.28527 -57.3587
476 1 65.4178 8.28527 -57.3587
478 1 68.6068 8.28527 -57.3587
480 1 71.7958 8.28527 -57.3587
482 1 74.9848 8.28527 -57.3587
484 1 78.1738 8.28527 -57.3587
486 1 81.3628 8.28527 -57.3587
488 1 84.5518 8.28527 -57.3587
490 1 87.7408 8.28527 -57.3587
492 1 90.9298 8.28527 -57.3587
494 1 94.1188 8.28527 -57.3587
496 1 97.3078 8.28527 -57.3587
498 1 100.497 8.28527 -57.3587
500 1 103.686 8.28527 -57.3587
502 1 106.875 8.28527 -57.3587
504 1 110.064 8.28527 -57.3587
506 1 113.253 8.28527 -57.3587
508 1 116.442 8.28527 -57.3587
510 1 119.631 8.28527 -57.3587
512 1 122.82 8.28527 -57.3587
514 1 126.009 8.28527 -57.3587
516 1 129.198 8.28527 -57.3587
518 1 132.387 8.28527 -57.3587
520 1 135.576 8.28527 -57.3587
522 1 138.765 8.28527 -57.3587
524 1 141.954 8.28527 -57.3587
526 1 145.143 8.28527 -57.3587
528 1 148.332 8.28527 -57.3587
530 1 151.521 8.28527 -57.3587
531 1 -57.3587 11.047 -57.3587
533 1 -54.1697 11.047 -57.3587
535 1 -50.9807 11.047 -57.3587
537 1 -47.7917 11.047 -57.3587
539 1 -44.6027 11.047 -57.3587
541 1 -41.4137 11.047 -57.3587
543 1 -38.2247 11.047 -57.3587
545 1 -35.0357 11.047 -57.3587
547 1 -31.8467 11.047 -57.3587
549 1 -28.6577 11.047 -57.3587
551 1 -25.4687 11.047 -57.3587
553 1 -22.2797 11.047 -57.3587
555 1 -19.0907 11.047 -57.3587
557 1 -15.9017 11.047 -57.3587
559 1 -12.7127 11.047 -57.3587
561 1 -9.52372 11.047 -57.3587
563 1 -6.33472 11.047 -57.3587
565 1 -3.14572 11.047 -57.3587
567 1 0.0432755 11.047 -57.3587
569 1 3.23228 11.047 -57.3587
571 1 6.42128 11.047 -57.3587
573 1 9.61028 11.047 -57.3587
575 1 12.7993 11.047 -57.3587
577 1 15.9883 11.047 -57.3587
579 1 19.1773 11.047 -57.3587
581 1 22.3663 11.047 -57.3587
583 1 25.5553 11.047 -57.3587
585 1 28.7443 11.047 -57.3587
587 1 31.9333 11.047 -57.3587
589 1 35.1223 11.047 -57.3587
591 1 38.3113 11.047 -57.3587
593 1 41.5003 11.047 -57.3587
595 1 44.6893 11.047 -57.3587
597 1 47.8783 11.047 -57.3587
599 1 51.0673 11.047 -57.3587
601 1 54.2563 11.047 -57.3587
603 1 57.4453 11.047 -57.3587
605 1 60.6343 11.047 -57.3587
607 1 63.8233 11.047 -57.3587
609 1 67.0123 11.047 -57.3587
611 1 70.2013 11.047 -57.3587
613 1 73.3903 11.047 -57.3587
615 1 76.5793 11.047 -57.3587
617 1 79.7683 11.047 -57.3587
619 1 82.9573 11.047 -57.3587
621 1 86.1463 11.047 -57.3587
623 1 89.3353 11.047 -57.3587
625 1 92.5243 11.047 -57.3587
627 1 95.7133 11.047 -57.3587
629 1 98.9023 11.047 -57.3587
631 1 102.091 11.047 -57.3587
633 1 105.28 11.047 -57.3587
635 1 108.469 11.047 -57.3587
637 1 111.658 11.047 -57.3587
639 1 114.847 11.047 -57.3587
641 1 118.036 11.047 -57.3587
643 1 121.225 11.047 -57.3587
645 1 124.414 11.047 -57.3587
647 1 127.603 11.047 -57.3587
649 1 130.792 11.047 -57.3587
651 1 133.981 11.047 -57.3587
653 1 137.17 11.047 -57.3587
655 1 140.359 11.047 -57.3587
657 1 143.548 11.047 -57.3587
659 1 146.737 11.047 -57.3587
661 1 149.926 11.047 -57.3587
663 1 153.115 11.047 -57.3587
665 1 -55.7642 13.8088 -57.3587
667 1 -52.5752 13.8088 -57.3587
669 1 -49.3862 13.8088 -57.3587
671 1 -46.1972 13.8088 -57.3587
673 1 -43.0082 13.8088 -57.3587
675 1 -39.8192 13.8088 -57.3587
677 1 -36.6302 13.8088 -57.3587
679 1 -33.4412 13.8088 -57.3587
681 1 -30.2522 13.8088 -57.3587
683 1 -27.0632 13.8088 -57.3587
685 1 -23.8742 13.8088 -57.3587
687 1 -20.6852 13.8088 -57.3587
689 1 -17.4962 13.8088 -57.3587
691 1 -14.3072 13.8088 -57.3587
693 1 -11.1182 13.8088 -57.3587
695 1 -7.92922 13.8088 -57.3587
697 1 -4.74022 13.8088 -57.3587
699 1 -1.55122 13.8088 -57.3587
701 1 1.63778 13.8088 -57.3587
703 1 4.82678 13.8088 -57.3587
705 1 8.01578 13.8088 -57.3587
707 1 11.2048 13.8088 -57.3587
709 1 14.3938 13.8088 -57.3587
711 1 17.5828 13.8088 -57.3587
713 1 20.7718 13.8088 -57.3587
715 1 23.9608 13.8088 -57.3587
717 1 27.1498 13.8088 -57.3587
719 1 30.3388 13.8088 -57.3587
721 1 33.5278 13.8088 -57.3587
723 1 36.7168 13.8088 -57.3587
725 1 39.9058 13.8088 -57.3587
727 1 43.0948 13.8088 -57.3587
729 1 46.2838 13.8088 -57.3587
731 1 49.4728 13.8088 -57.3587
733 1 52.6618 13.8088 -57.3587
735 1 55.8508 13.8088 -57.3587
737 1 59.0398 13.8088 -57.3587
739 1 62.2288 13.8088 -57.3587
741 1 65.4178 13.8088 -57.3587
743 1 68.6068 13.8088 -57.3587
745 1 71.7958 13.8088 -57.3587
747 1 74.9848 13.8088 -57.3587
749 1 78.1738 13.8088 -57.3587
751 1 81.3628 13.8088 -57.3587
753 1 84.5518 13.8088 -57.3587
755 1 87.7408 13.8088 -57.3587
757 1 90.9298 13.8088 -57.3587
759 1 94.1188 13.8088 -57.3587
761 1 97.3078 13.8088 -57.3587
763 1 100.497 13.8088 -57.3587
765 1 103.686 13.8088 -57.3587
767 1 106.875 13.8088 -57.3587
769 1 110.064 13.8088 -57.3587
771 1 113.253 13.8088 -57.3587
773 1 116.442 13.8088 -57.3587
775 1 119.631 13.8088 -57.3587
777 1 122.82 13.8088 -57.3587
779 1 126.009 13.8088 -57.3587
781 1 129.198 13.8088 -57.3587
783 1 132.387 13.8088 -57.3587
785 1 135.576 13.8088 -57.3587
787 1 138.765 13.8088 -57.3587
789 1 141.954 13.8088 -57.3587
791 1 145.143 13.8088 -57.3587
793 1 148.332 13.8088 -57.3587
795 1 151.521 13.8088 -57.3587
796 1 -57.3587 16.5705 -57.3587
798 1 -54.1697 16.5705 -57.3587
800 1 -50.9807 16.5705 -57.3587
802 1 -47.7917 16.5705 -57.3587
804 1 -44.6027 16.5705 -57.3587
806 1 -41.4137 16.5705 -57.3587
808 1 -38.2247 16.5705 -57.3587
810 1 -35.0357 16.5705 -57.3587
812 1 -31.8467 16.5705 -57.3587
814 1 -28.6577 16.5705 -57.3587
816 1 -25.4687 16.5705 -57.3587
818 1 -22.2797 16.5705 -57.3587
820 1 -19.0907 16.5705 -57.3587
822 1 -15.9017 16.5705 -57.3587
824 1 -12.7127 16.5705 -57.3587
826 1 -9.52372 16.5705 -57.3587
828 1 -6.33472 16.5705 -57.3587
830 1 -3.14572 16.5705 -57.3587
832 1 0.0432755 16.5705 -57.3587
834 1 3.23228 16.5705 -57.3587
836 1 6.42128 16.5705 -57.3587
838 1 9.61028 16.5705 -57.3587
840 1 12.7993 16.5705 -57.3587
842 1 15.9883 16.5705 -57.3587
844 1 19.1773 16.5705 -57.3587
846 1 22.3663 16.5705 -57.3587
848 1 25.5553 16.5705 -57.3587
850 1 28.7443 16.5705 -57.3587
852 1 31.9333 16.5705 -57.3587
854 1 35.1223 16.5705 -57.3587
856 1 38.3113 16.5705 -57.3587
858 1 41.5003 16.5705 -57.3587
860 1 44.6893 16.5705 -57.3587
862 1 47.8783 16.5705 -57.3587
864 1 51.0673 16.5705 -57.3587
866 1 54.2563 16.5705 -57.3587
868 1 57.4453 16.5705 -57.3587
870 1 60.6343 16.5705 -57.3587
872 1 63.8233 16.5705 -57.3587
874 1 67.0123 16.5705 -57.3587
876 1 70.2013 16.5705 -57.3587
878 1 73.3903 16.5705 -57.3587
880 1 76.5793 16.5705 -57.3587
882 1 79.7683 16.5705 -57.3587
884 1 82.9573 16.5705 -57.3587
886 1 86.1463 16.5705 -57.3587
888 1 89.3353 16.5705 -57.3587
890 1 92.5243 16.5705 -57.3587
892 1 95.7133 16.5705 -57.3587
894 1 98.9023 16.5705 -57.3587
896 1 102.091 16.5705 -57.3587
898 1 105.28 16.5705 -57.3587
900 1 108.469 16.5705 -57.3587
902 1 111.658 16.5705 -57.3587
904 1 114.847 16.5705 -57.3587
906 1 118.036 16.5705 -57.3587
908 1 121.225 16.5705 -57.3587
910 1 124.414 16.5705 -57.3587
912 1 127.603 16.5705 -57.3587
914 1 130.792 16.5705 -57.3587
916 1 133.981 16.5705 -57.3587
918 1 137.17 16.5705 -57.3587
920 1 140.359 16.5705 -57.3587
922 1 143.548 16.5705 -57.3587
924 1 146.737 16.5705 -57.3587
926 1 149.926 16.5705 -57.3587
928 1 153.115 16.5705 -57.3587
930 1 -55.7642 19.3323 -57.3587
932 1 -52.5752 19.3323 -57.3587
934 1 -49.3862 19.3323 -57.3587
936 1 -46.1972 19.3323 -57.3587
938 1 -43.0082 19.3323 -57.3587
940 1 -39.8192 19.3323 -57.3587
942 1 -36.6302 19.3323 -57.3587
944 1 -33.4412 19.3323 -57.3587
946 1 -30.2522 19.3323 -57.3587
948 1 -27.0632 19.3323 -57.3587
950 1 -23.8742 19.3323 -57.3587
952 1 -20.6852 19.3323 -57.3587
954 1 -17.4962 19.3323 -57.3587
956 1 -14.3072 19.3323 -57.3587
958 1 -11.1182 19.3323 -57.3587
960 1 -7.92922 19.3323 -57.3587
962 1 -4.74022 19.3323 -57.3587
964 1 -1.55122 19.3323 -57.3587
966 1 1.63778 19.3323 -57.3587
968 1 4.82678 19.3323 -57.3587
970 1 8.01578 19.3323 -57.3587
972 1 11.2048 19.3323 -57.3587
974 1 14.3938 19.3323 -57.3587
976 1 17.5828 19.3323 -57.3587
978 1 20.7718 19.3323 -57.3587
980 1 23.9608 19.3323 -57.3587
982 1 27.1498 19.3323 -57.3587
984 1 30.3388 19.3323 -57.3587
986 1 33.5278 19.3323 -57.3587
988 1 36.7168 19.3323 -57.3587
990 1 39.9058 19.3323 -57.3587
992 1 43.0948 19.3323 -57.3587
994 1 46.2838 19.3323 -57.3587
996 1 49.4728 19.3323 -57.3587
998 1 52.6618 19.3323 -57.3587
1000 1 55.8508 19.3323 -57.3587
1002 1 59.0398 19.3323 -57.3587
1004 1 62.2288 19.3323 -57.3587
1006 1 65.4178 19.3323 -57.3587
1008 1 68.6068 19.3323 -57.3587
1010 1 71.7958 19.3323 -57.3587
1012 1 74.9848 19.3323 -57.3587
1014 1 78.1738 19.3323 -57.3587
1016 1 81.3628 19.3323 -57.3587
1018 1 84.5518 19.3323 -57.3587
1020 1 87.7408 19.3323 -57.3587
1022 1 90.9298 19.3323 -57.3587
1024 1 94.1188 19.3323 -57.3587
1026 1 97.3078 19.3323 -57.3587
1028 1 100.497 19.3323 -57.3587
1030 1 103.686 19.3323 -57.3587
1032 1 106.875 19.3323 -57.3587
1034 1 110.064 19.3323 -57.3587
1036 1 113.253 19.3323 -57.3587
1038 1 116.442 19.3323 -57.3587
1040 1 119.631 19.3323 -57.3587
1042 1 122.82 19.3323 -57.3587
1044 1 126.009 19.3323 -57.3587
1046 1 129.198 19.3323 -57.3587
1048 1 132.387 19.3323 -57.3587
1050 1 135.576 19.3323 -57.3587
1052 1 138.765 19.3323 -57.3587
1054 1 141.954 19.3323 -57.3587
1056 1 145.143 19.3323 -57.3587
1058 1 148.332 19.3323 -57.3587
1060 1 151.521 19.3323 -57.3587
1061 1 -57.3587 22.094 -57.3587
1063 1 -54.1697 22.094 -57.3587
1065 1 -50.9807 22.094 -57.3587
1067 1 -47.7917 22.094 -57.3587
1069 1 -44.6027 22.094 -57.3587
1071 1 -41.4137 22.094 -57.3587
1073 1 -38.2247 22.094 -57.3587
1075 1 -35.0357 22.094 -57.3587
1077 1 -31.8467 22.094 -57.3587
1079 1 -28.6577 22.094 -57.3587
1081 1 -25.4687 22.094 -57.3587
1083 1 -22.2797 22.094 -57.3587
1085 1 -19.0907 22.094 -57.3587
1087 1 -15.9017 22.094 -57.3587
1089 1 -12.7127 22.094 -57.3587
1091 1 -9.52372 22.094 -57.3587
1093 1 -6.33472 22.094 -57.3587
1095 1 -3.14572 22.094 -57.3587
1097 1 0.0432755 22.094 -57.3587
1099 1 3.23228 22.094 -57.3587
1101 1 6.42128 22.094 -57.3587
1103 1 9.61028 22.094 -57.3587
1105 1 12.7993 22.094 -57.3587
1107 1 15.9883 22.094 -57.3587
1109 1 19.1773 22.094 -57.3587
1111 1 22.3663 22.094 -57.3587
1113 1 25.5553 22.094 -57.3587
1115 1 28.7443 22.094 -57.3587
1117 1 31.9333 22.094 -57.3587
1119 1 35.1223 22.094 -57.3587
1121 1 38.3113 22.094 -57.3587
1123 1 41.5003 22.094 -57.3587
1125 1 44.6893 22.094 -57.3587
1127 1 47.8783 22.094 -57.3587
1129 1 51.0673 22.094 -57.3587
1131 1 54.2563 22.094 -57.3587
1133 1 57.4453 22.094 -57.3587
1135 1 60.6343 22.094 -57.3587
1137 1 63.8233 22.094 -57.3587
1139 1 67.0123 22.094 -57.3587
1141 1 70.2013 22.094 -57.3587
1143 1 73.3903 22.094 -57.3587
1145 1 76.5793 22.094 -57.3587
1147 1 79.7683 22.094 -57.3587
1149 1 82.9573 22.094 -57.3587
1151 1 86.1463 22.094 -57.3587
1153 1 89.3353 22.094 -57.3587
1155 1 92.5243 22.094 -57.3587
1157 1 95.7133 22.094 -57.3587
1159 1 98.9023 22.094 -57.3587
1161 1 102.091 22.094 -57.3587
1163 1 105.28 22.094 -57.3587
1165 1 108.469 22.094 -57.3587
1167 1 111.658 22.094 -57.3587
1169 1 114.847 22.094 -57.3587
1171 1 118.036 22.094 -57.3587
1173 1 121.225 22.094 -57.3587
1175 1 124.414 22.094 -57.3587
1177 1 127.603 22.094 -57.3587
1179 1 130.792 22.094 -57.3587
1181 1 133.981 22.094 -57.3587
1183 1 137.17 22.094 -57.3587
1185 1 140.359 22.094 -57.3587
1187 1 143.548 22.094 -57.3587
1189 1 146.737 22.094 -57.3587
1191 1 149.926 22.094 -57.3587
1193 1 153.115 22.094 -57.3587
1195 1 -55.7642 24.8558 -57.3587
1197 1 -52.5752 24.8558 -57.3587
1199 1 -49.3862 24.8558 -57.3587
1201 1 -46.1972 24.8558 -57.3587
1203 1 -43.0082 24.8558 -57.3587
1205 1 -39.8192 24.8558 -57.3587
1207 1 -36.6302 24.8558 -57.3587
1209 1 -33.4412 24.8558 -57.3587
1211 1 -30.2522 24.8558 -57.3587
1213 1 -27.0632 24.8558 -57.3587
1215 1 -23.8742 24.8558 -57.3587
1217 1 -20.6852 24.8558 -57.3587
1219 1 -17.4962 24.8558 -57.3587
1221 1 -14.3072 24.8558 -57.3587
1223 1 -11.1182 24.8558 -57.3587
1225 1 -7.92922 24.8558 -57.3587
1227 1 -4.74022 24.8558 -57.3587
1229 1 -1.55122 24.8558 -57.3587
1231 1 1.63778 24.8558 -57.3587
1233 1 4.82678 24.8558 -57.3587
1235 1 8.01578 24.8558 -57.3587
1237 1 11.2048 24.8558 -57.3587
1239 1 14.3938 24.8558 -57.3587
1241 1 17.5828 24.8558 -57.3587
1243 1 20.7718 24.8558 -57.3587
1245 1 23.9608 24.8558 -57.3587
1247 1 27.1498 24.8558 -57.3587
1249 1 30.3388 24.8558 -57.3587
1251 1 33.5278 24.8558 -57.3587
1253 1 36.7168 24.8558 -57.3587
1255 1 39.9058 24.8558 -57.3587
1257 1 43.0948 24.8558 -57.3587
1259 1 46.2838 24.8558 -57.3587
1261 1 49.4728 24.8558 -57.3587
1263 1 52.6618 24.8558 -57.3587
1265 1 55.8508 24.8558 -57.3587
1267 1 59.0398 24.8558 -57.3587
1269 1 62.2288 24.8558 -57.3587
1271 1 65.4178 24.8558 -57.3587
1273 1 68.6068 24.8558 -57.3587
1275 1 71.7958 24.8558 -57.3587
1277 1 74.9848 24.8558 -57.3587
1279 1 78.1738 24.8558 -57.3587
1281 1 81.3628 24.8558 -57.3587
1283 1 84.5518 24.8558 -57.3587
1285 1 87.7408 24.8558 -57.3587
1287 1 90.9298 24.8558 -57.3587
1289 1 94.1188 24.8558 -57.3587
1291 1 97.3078 24.8558 -57.3587
1293 1 100.497 24.8558 -57.3587
1295 1 103.686 24.8558 -57.3587
1297 1 106.875 24.8558 -57.3587
1299 1 110.064 24.8558 -57.3587
1301 1 113.253 24.8558 -57.3587
1303 1 116.442 24.8558 -57.3587
1305 1 119.631 24.8558 -57.3587
1307 1 122.82 24.8558 -57.3587
1309 1 126.009 24.8558 -57.3587
1311 1 129.198 24.8558 -57.3587
1313 1 132.387 24.8558 -57.3587
1315 1 135.576 24.8558 -57.3587
1317 1 138.765 24.8558 -57.3587
1319 1 141.954 24.8558 -57.3587
1321 1 145.143 24.8558 -57.3587
1323 1 148.332 24.8558 -57.3587
1325 1 151.521 24.8558 -57.3587
1326 1 -57.3587 27.6176 -57.3587
1328 1 -54.1697 27.6176 -57.3587
1330 1 -50.9807 27.6176 -57.3587
1332 1 -47.7917 27.6176 -57.3587
1334 1 -44.6027 27.6176 -57.3587
1336 1 -41.4137 27.6176 -57.3587
1338 1 -38.2247 27.6176 -57.3587
1340 1 -35.0357 27.6176 -57.3587
1342 1 -31.8467 27.6176 -57.3587
1344 1 -28.6577 27.6176 -57.3587
1346 1 -25.4687 27.6176 -57.3587
1348 1 -22.2797 27.6176 -57.3587
1350 1 -19.0907 27.6176 -57.3587
1352 1 -15.9017 27.6176 -57.3587
1354 1 -12.7127 27.6176 -57.3587
1356 1 -9.52372 27.6176 -57.3587
1358 1 -6.33472 27.6176 -57.3587
1360 1 -3.14572 27.6176 -57.3587
1362 1 0.0432755 27.6176 -57.3587
1364 1 3.23228 27.6176 -57.3587
1366 1 6.42128 27.6176 -57.3587
1368 1 9.61028 27.6176 -57.3587
1370 1 12.7993 27.6176 -57.3587
1372 1 15.9883 27.6176 -57.3587
1374 1 19.1773 27.6176 -57.3587
1376 1 22.3663 27.6176 -57.3587
1378 1 25.5553 27.6176 -57.3587
1380 1 28.7443 27.6176 -57.3587
1382 1 31.9333 27.6176 -57.3587
1384 1 35.1223 27.6176 -57.3587
1386 1 38.3113 27.6176 -57.3587
1388 1 41.5003 27.6176 -57.3587
1390 1 44.6893 27.6176 -57.3587
1392 1 47.8783 27.6176 -57.3587
1394 1 51.0673 27.6176 -57.3587
1396 1 54.2563 27.6176 -57.3587
1398 1 57.4453 27.6176 -57.3587
1400 1 60.6343 27.6176 -57.3587
1402 1 63.8233 27.6176 -57.3587
1404 1 67.0123 27.6176 -57.3587
1406 1 70.2013 27.6176 -57.3587
1408 1 73.3903 27.6176 -57.3587
1410 1 76.5793 27.6176 -57.3587
1412 1 79.7683 27.6176 -57.3587
1414 1 82.9573 27.6176 -57.3587
1416 1 86.1463 27.6176 -57.3587
1418 1 89.3353 27.6176 -57.3587
1420 1 92.5243 27.6176 -57.3587
1422 1 95.7133 27.6176 -57.3587
1424 1 98.9023 27.6176 -57.3587
1426 1 102.091 27.6176 -57.3587
1428 1 105.28 27.6176 -57.3587
1430 1 108.469 27.6176 -57.3587
1432 1 111.658 27.6176 -57.3587
1434 1 114.847 27.6176 -57.3587
1436 1 118.036 27.6176 -57.3587
1438 1 121.225 27.6176 -57.3587
1440 1 124.414 27.6176 -57.3587
1442 1 127.603 27.6176 -57.3587
1444 1 130.792 27.6176 -57.3587
1446 1 133.981 27.6176 -57.3587
1448 1 137.17 27.6176 -57.3587
1450 1 140.359 27.6176 -57.3587
1452 1 143.548 27.6176 -57.3587
1454 1 146.737 27.6176 -57.3587
1456 1 149.926 27.6176 -57.3587
1458 1 153.115 27.6176 -57.3587
1460 1 -55.7642 30.3793 -57.3587
1462 1 -52.5752 30.3793 -57.3587
1464 1 -49.3862 30.3793 -57.3587
1466 1 -46.1972 30.3793 -57.3587
1468 1 -43.0082 30.3793 -57.3587
1470 1 -39.8192 30.3793 -57.3587
1472 1 -36.6302 30.3793 -57.3587
1474 1 -33.4412 30.3793 -57.3587
1476 1 -30.2522 30.3793 -57.3587
1478 1 -27.0632 30.3793 -57.3587
1480 1 -23.8742 30.3793 -57.3587
1482 1 -20.6852 30.3793 -57.3587
1484 1 -17.4962 30.3793 -57.3587
1486 1 -14.3072 30.3793 -57.3587
1488 1 -11.1182 30.3793 -57.3587
1490 1 -7.92922 30.3793 -57.3587
1492 1 -4.74022 30.3793 -57.3587
1494 1 -1.55122 30.3793 -57.3587
1496 1 1.63778 30.3793 -57.3587
1498 1 4.82678 30.3793 -57.3587
1500 1 8.01578 30.3793 -57.3587
1502 1 11.2048 30.3793 -57.3587
1504 1 14.3938 30.3793 -57.3587
1506 1 17.5828 30.3793 -57.3587
1508 1 20.7718 30.3793 -57.3587
1510 1 23.9608 30.3793 -57.3587
1512 1 27.1498 30.3793 -57.3587
1514 1 30.3388 30.3793 -57.3587
1516 1 33.5278 30.3793 -57.3587
1518 1 36.7168 30.3793 -57.3587
1520 1 39.9058 30.3793 -57.3587
1522 1 43.0948 30.3793 -57.3587
1524 1 46.2838 30.3793 -57.3587
1526 1 49.4728 30.3793 -57.3587
1528 1 52.6618 30.3793 -57.3587
1530 1 55.8508 30.3793 -57.3587
1532 1 59.0398 30.3793 -57.3587
1534 1 62.2288 30.3793 -57.3587
1536 1 65.4178 30.3793 -57.3587
1538 1 68.6068 30.3793 -57.3587
1540 1 71.7958 30.3793 -57.3587
1542 1 74.9848 30.3793 -57.3587
1544 1 78.1738 30.3793 -57.3587
1546 1 81.3628 30.3793 -57.3587
1548 1 84.5518 30.3793 -57.3587
1550 1 87.7408 30.3793 -57.3587
1552 1 90.9298 30.3793 -57.3587
1554 1 94.1188 30.3793 -57.3587
1556 1 97.3078 30.3793 -57.3587
1558 1 100.497 30.3793 -57.3587
1560 1 103.686 30.3793 -57.3587
1562 1 106.875 30.3793 -57.3587
1564 1 110.064 30.3793 -57.3587
1566 1 113.253 30.3793 -57.3587
1568 1 116.442 30.3793 -57.3587
1570 1 119.631 30.3793 -57.3587
1572 1 122.82 30.3793 -57.3587
1574 1 126.009 30.3793 -57.3587
1576 1 129.198 30.3793 -57.3587
1578 1 132.387 30.3793 -57.3587
1580 1 135.576 30.3793 -57.3587
1582 1 138.765 30.3793 -57.3587
1584 1 141.954 30.3793 -57.3587
1586 1 145.143 30.3793 -57.3587
1588 1 148.332 30.3793 -57.3587
1590 1 151.521 30.3793 -57.3587
1591 1 -57.3587 33.1411 -57.3587
1592 1 -54.1697 33.1411 -57.3587
1593 1 -50.9807 33.1411 -57.3587
1594 1 -47.7917 33.1411 -57.3587
1595 1 -44.6027 33.1411 -57.3587
1596 1 -41.4137 33.1411 -57.3587
1597 1 -38.2247 33.1411 -57.3587
1598 1 -35.0357 33.1411 -57.3587
1599 1 -31.8467 33.1411 -57.3587
1600 1 -28.6577 33.1411 -57.3587
1601 1 -25.4687 33.1411 -57.3587
1602 1 -22.2797 33.1411 -57.3587
1603 1 -19.0907 33.1411 -57.3587
1604 1 -15.9017 33.1411 -57.3587
1605 1 -12.7127 33.1411 -57.3587
1606 1 -9.52372 33.1411 -57.3587
1607 1 -6.33472 33.1411 -57.3587
1608 1 -3.14572 33.1411 -57.3587
1609 1 0.0432755 33.1411 -57.3587
1610 1 3.23228 33.1411 -57.3587
1611 1 6.42128 33.1411 -57.3587
1612 1 9.61028 33.1411 -57.3587
1613 1 12.7993 33.1411 -57.3587
1614 1 15.9883 33.1411 -57.3587
1615 1 19.1773 33.1411 -57.3587
1616 1 22.3663 33.1411 -57.3587
1617 1 25.5553 33.1411 -57.3587
1618 1 28.7443 33.1411 -57.3587
1619 1 31.9333 33.1411 -57.3587
1620 1 35.1223 33.1411 -57.3587
1621 1 38.3113 33.1411 -57.3587
1622 1 41.5003 33.1411 -57.3587
1623 1 44.6893 33.1411 -57.3587
1624 1 47.8783 33.1411 -57.3587
1625 1 51.0673 33.1411 -57.3587
1626 1 54.2563 33.1411 -57.3587
1627 1 57.4453 33.1411 -57.3587
1628 1 60.6343 33.1411 -57.3587
1629 1 63.8233 33.1411 -57.3587
1630 1 67.0123 33.1411 -57.3587
1631 1 70.2013 33.1411 -57.3587
1632 1 73.3903 33.1411 -57.3587
1633 1 76.5793 33.1411 -57.3587
1634 1 79.7683 33.1411 -57.3587
1635 1 82.9573 33.1411 -57.3587
1636 1 86.1463 33.1411 -57.3587
1637 1 89.3353 33.1411 -57.3587
1638 1 92.5243 33.1411 -57.3587
1639 1 95.7133 33.1411 -57.3587
1640 1 98.9023 33.1411 -57.3587
1641 1 102.091 33.1411 -57.3587
1642 1 105.28 33.1411 -57.3587
1643 1 108.469 33.1411 -57.3587
1644 1 111.658 33.1411 -57.3587
1645 1 114.847 33.1411 -57.3587
1646 1 118.036 33.1411 -57.3587
1647 1 121.225 33.1411 -57.3587
1648 1 124.414 33.1411 -57.3587
1649 1 127.603 33.1411 -57.3587
1650 1 130.792 33.1411 -57.3587
1651 1 133.981 33.1411 -57.3587
1652 1 137.17 33.1411 -57.3587
1653 1 140.359 33.1411 -57.3587
1654 1 143.548 33.1411 -57.3587
1655 1 146.737 33.1411 -57.3587
1656 1 149.926 33.1411 -57.3587
1657 1 153.115 33.1411 -57.3587
2 1 -55.7962 1.01668 -49.0741
4 1 -52.6072 1.01668 -49.0741
6 1 -49.4182 1.01668 -49.0741
8 1 -46.2292 1.01668 -49.0741
10 1 -43.0402 1.01668 -49.0741
12 1 -39.8512 1.01668 -49.0741
14 1 -36.6622 1.01668 -49.0741
16 1 -33.4732 1.01668 -49.0741
18 1 -30.2842 1.01668 -49.0741
20 1 -27.0952 1.01668 -49.0741
22 1 -23.9062 1.01668 -49.0741
24 1 -20.7172 1.01668 -49.0741
26 1 -17.5282 1.01668 -49.0741
28 1 -14.3392 1.01668 -49.0741
30 1 -11.1502 1.01668 -49.0741
32 1 -7.96122 1.01668 -49.0741
34 1 -4.77222 1.01668 -49.0741
36 1 -1.58322 1.01668 -49.0741
38 1 1.60578 1.01668 -49.0741
40 1 4.79478 1.01668 -49.0741
42 1 7.98378 1.01668 -49.0741
44 1 11.1728 1.01668 -49.0741
46 1 14.3618 1.01668 -49.0741
48 1 17.5508 1.01668 -49.0741
50 1 20.7398 1.01668 -49.0741
52 1 23.9288 1.01668 -49.0741
54 1 27.1178 1.01668 -49.0741
56 1 30.3068 1.01668 -49.0741
58 1 33.4958 1.01668 -49.0741
60 1 36.6848 1.01668 -49.0741
62 1 39.8738 1.01668 -49.0741
64 1 43.0628 1.01668 -49.0741
66 1 46.2518 1.01668 -49.0741
68 1 49.4408 1.01668 -49.0741
70 1 52.6298 1.01668 -49.0741
72 1 55.8188 1.01668 -49.0741
74 1 59.0078 1.01668 -49.0741
76 1 62.1968 1.01668 -49.0741
78 1 65.3858 1.01668 -49.0741
80 1 68.5748 1.01668 -49.0741
82 1 71.7638 1.01668 -49.0741
84 1 74.9528 1.01668 -49.0741
86 1 78.1418 1.01668 -49.0741
88 1 81.3308 1.01668 -49.0741
90 1 84.5198 1.01668 -49.0741
92 1 87.7088 1.01668 -49.0741
94 1 90.8978 1.01668 -49.0741
96 1 94.0868 1.01668 -49.0741
98 1 97.2758 1.01668 -49.0741
100 1 100.465 1.01668 -49.0741
102 1 103.654 1.01668 -49.0741
104 1 106.843 1.01668 -49.0741
106 1 110.032 1.01668 -49.0741
108 1 113.221 1.01668 -49.0741
110 1 116.41 1.01668 -49.0741
112 1 119.599 1.01668 -49.0741
114 1 122.788 1.01668 -49.0741
116 1 125.977 1.01668 -49.0741
118 1 129.166 1.01668 -49.0741
120 1 132.355 1.01668 -49.0741
122 1 135.544 1.01668 -49.0741
124 1 138.733 1.01668 -49.0741
126 1 141.922 1.01668 -49.0741
128 1 145.111 1.01668 -49.0741
130 1 148.3 1.01668 -49.0741
132 1 151.489 1.01668 -49.0741
134 1 -57.3586 3.68225 -49.0912
136 1 -54.2017 3.77843 -49.0741
138 1 -51.0127 3.77843 -49.0741
140 1 -47.8237 3.77843 -49.0741
142 1 -44.6347 3.77843 -49.0741
144 1 -41.4457 3.77843 -49.0741
146 1 -38.2567 3.77843 -49.0741
148 1 -35.0677 3.77843 -49.0741
150 1 -31.8787 3.77843 -49.0741
152 1 -28.6897 3.77843 -49.0741
154 1 -25.5007 3.77843 -49.0741
156 1 -22.3117 3.77843 -49.0741
158 1 -19.1227 3.77843 -49.0741
160 1 -15.9337 3.77843 -49.0741
162 1 -12.7447 3.77843 -49.0741
164 1 -9.55572 3.77843 -49.0741
166 1 -6.36672 3.77843 -49.0741
168 1 -3.17772 3.77843 -49.0741
170 1 0.0112816 3.77843 -49.0741
172 1 3.20028 3.77843 -49.0741
174 1 6.38928 3.77843 -49.0741
176 1 9.57828 3.77843 -49.0741
178 1 12.7673 3.77843 -49.0741
180 1 15.9563 3.77843 -49.0741
182 1 19.1453 3.77843 -49.0741
184 1 22.3343 3.77843 -49.0741
186 1 25.5233 3.77843 -49.0741
188 1 28.7123 3.77843 -49.0741
190 1 31.9013 3.77843 -49.0741