ITEM: TIMESTEP
12500
ITEM: NUMBER OF ATOMS
14121
ITEM: BOX BOUNDS ss ss ss
-4.1294205506247302e+01 4.1594147904891395e+02
-1.0231754111503553e+00 3.3781192455658292e+01
-4.1279769205564506e+01 2.6944059754596049e+02
ITEM: ATOMS id type x y z
1 1 -41.3564 0 -41.3564
3 1 -38.1674 0 -41.3564
5 1 -34.9784 0 -41.3564
7 1 -31.7894 0 -41.3564
9 1 -28.6004 0 -41.3564
11 1 -25.4114 0 -41.3564
13 1 -22.2224 0 -41.3564
15 1 -19.0334 0 -41.3564
17 1 -15.8444 0 -41.3564
19 1 -12.6554 0 -41.3564
21 1 -9.46637 0 -41.3564
23 1 -6.27737 0 -41.3564
25 1 -3.08837 0 -41.3564
27 1 0.100634 0 -41.3564
29 1 3.28963 0 -41.3564
31 1 6.47863 0 -41.3564
33 1 9.66763 0 -41.3564
35 1 12.8566 0 -41.3564
37 1 16.0456 0 -41.3564
39 1 19.2346 0 -41.3564
41 1 22.4236 0 -41.3564
43 1 25.6126 0 -41.3564
45 1 28.8016 0 -41.3564
47 1 31.9906 0 -41.3564
49 1 35.1796 0 -41.3564
51 1 38.3686 0 -41.3564
53 1 41.5576 0 -41.3564
55 1 44.7466 0 -41.3564
57 1 47.9356 0 -41.3564
59 1 51.1246 0 -41.3564
61 1 54.3136 0 -41.3564
63 1 57.5026 0 -41.3564
65 1 60.6916 0 -41.3564
67 1 63.8806 0 -41.3564
69 1 67.0696 0 -41.3564
71 1 70.2586 0 -41.3564
73 1 73.4476 0 -41.3564
75 1 76.6366 0 -41.3564
77 1 79.8256 0 -41.3564
79 1 83.0146 0 -41.3564
81 1 86.2036 0 -41.3564
83 1 89.3926 0 -41.3564
85 1 92.5816 0 -41.3564
87 1 95.7706 0 -41.3564
89 1 98.9596 0 -41.3564
91 1 102.149 0 -41.3564
93 1 105.338 0 -41.3564
95 1 108.527 0 -41.3564
97 1 111.716 0 -41.3564
99 1 114.905 0 -41.3564
101 1 118.094 0 -41.3564
103 1 121.283 0 -41.3564
105 1 124.472 0 -41.3564
107 1 127.661 0 -41.3564
109 1 130.85 0 -41.3564
111 1 134.039 0 -41.3564
113 1 137.228 0 -41.3564
115 1 140.417 0 -41.3564
117 1 143.606 0 -41.3564
119 1 146.795 0 -41.3564
121 1 149.984 0 -41.3564
123 1 153.173 0 -41.3564
125 1 156.362 0 -41.3564
127 1 159.551 0 -41.3564
129 1 162.74 0 -41.3564
131 1 165.929 0 -41.3564
133 1 169.118 0 -41.3564
135 1 -39.7619 2.76176 -41.3564
137 1 -36.5729 2.76176 -41.3564
139 1 -33.3839 2.76176 -41.3564
141 1 -30.1949 2.76176 -41.3564
143 1 -27.0059 2.76176 -41.3564
145 1 -23.8169 2.76176 -41.3564
147 1 -20.6279 2.76176 -41.3564
149 1 -17.4389 2.76176 -41.3564
151 1 -14.2499 2.76176 -41.3564
153 1 -11.0609 2.76176 -41.3564
155 1 -7.87187 2.76176 -41.3564
157 1 -4.68287 2.76176 -41.3564
159 1 -1.49387 2.76176 -41.3564
161 1 1.69513 2.76176 -41.3564
163 1 4.88413 2.76176 -41.3564
165 1 8.07313 2.76176 -41.3564
167 1 11.2621 2.76176 -41.3564
169 1 14.4511 2.76176 -41.3564
171 1 17.6401 2.76176 -41.3564
173 1 20.8291 2.76176 -41.3564
175 1 24.0181 2.76176 -41.3564
177 1 27.2071 2.76176 -41.3564
179 1 30.3961 2.76176 -41.3564
181 1 33.5851 2.76176 -41.3564
183 1 36.7741 2.76176 -41.3564
185 1 39.9631 2.76176 -41.3564
187 1 43.1521 2.76176 -41.3564
189 1 46.3411 2.76176 -41.3564
191 1 49.5301 2.76176 -41.3564
193 1 52.7191 2.76176 -41.3564
195 1 55.9081 2.76176 -41.3564
197 1 59.0971 2.76176 -41.3564
199 1 62.2861 2.76176 -41.3564
201 1 65.4751 2.76176 -41.3564
203 1 68.6641 2.76176 -41.3564
205 1 71.8531 2.76176 -41.3564
207 1 75.0421 2.76176 -41.3564
209 1 78.2311 2.76176 -41.3564
211 1 81.4201 2.76176 -41.3564
213 1 84.6091 2.76176 -41.3564
215 1 87.7981 2.76176 -41.3564
217 1 90.9871 2.76176 -41.3564
219 1 94.1761 2.76176 -41.3564
221 1 97.3651 2.76176 -41.3564
223 1 100.554 2.76176 -41.3564
225 1 103.743 2.76176 -41.3564
227 1 106.932 2.76176 -41.3564
229 1 110.121 2.76176 -41.3564
231 1 113.31 2.76176 -41.3564
233 1 116.499 2.76176 -41.3564
235 1 119.688 2.76176 -41.3564
237 1 122.877 2.76176 -41.3564
239 1 126.066 2.76176 -41.3564
241 1 129.255 2.76176 -41.3564
243 1 132.444 2.76176 -41.3564
245 1 135.633 2.76176 -41.3564
247 1 138.822 2.76176 -41.3564
249 1 142.011 2.76176 -41.3564
251 1 145.2 2.76176 -41.3564
253 1 148.389 2.76176 -41.3564
255 1 151.578 2.76176 -41.3564
257 1 154.767 2.76176 -41.3564
259 1 157.956 2.76176 -41.3564
261 1 161.145 2.76176 -41.3564
263 1 164.334 2.76176 -41.3564
265 1 167.523 2.76176 -41.3564
266 1 -41.3564 5.52351 -41.3564
268 1 -38.1674 5.52351 -41.3564
270 1 -34.9784 5.52351 -41.3564
272 1 -31.7894 5.52351 -41.3564
274 1 -28.6004 5.52351 -41.3564
276 1 -25.4114 5.52351 -41.3564
278 1 -22.2224 5.52351 -41.3564
280 1 -19.0334 5.52351 -41.3564
282 1 -15.8444 5.52351 -41.3564
284 1 -12.6554 5.52351 -41.3564
286 1 -9.46637 5.52351 -41.3564
288 1 -6.27737 5.52351 -41.3564
290 1 -3.08837 5.52351 -41.3564
292 1 0.100634 5.52351 -41.3564
294 1 3.28963 5.52351 -41.3564
296 1 6.47863 5.52351 -41.3564
298 1 9.66763 5.52351 -41.3564
300 1 12.8566 5.52351 -41.3564
302 1 16.0456 5.52351 -41.3564
304 1 19.2346 5.52351 -41.3564
306 1 22.4236 5.52351 -41.3564
308 1 25.6126 5.52351 -41.3564
310 1 28.8016 5.52351 -41.3564
312 1 31.9906 5.52351 -41.3564
314 1 35.1796 5.52351 -41.3564
316 1 38.3686 5.52351 -41.3564
318 1 41.5576 5.52351 -41.3564
320 1 44.7466 5.52351 -41.3564
322 1 47.9356 5.52351 -41.3564
324 1 51.1246 5.52351 -41.3564
326 1 54.3136 5.52351 -41.3564
328 1 57.5026 5.52351 -41.3564
330 1 60.6916 5.52351 -41.3564
332 1 63.8806 5.52351 -41.3564
334 1 67.0696 5.52351 -41.3564
336 1 70.2586 5.52351 -41.3564
338 1 73.4476 5.52351 -41.3564
340 1 76.6366 5.52351 -41.3564
342 1 79.8256 5.52351 -41.3564
344 1 83.0146 5.52351 -41.3564
346 1 86.2036 5.52351 -41.3564
348 1 89.3926 5.52351 -41.3564
350 1 92.5816 5.52351 -41.3564
352 1 95.7706 5.52351 -41.3564
354 1 98.9596 5.52351 -41.3564
356 1 102.149 5.52351 -41.3564
358 1 105.338 5.52351 -41.3564
360 1 108.527 5.52351 -41.3564
362 1 111.716 5.52351 -41.3564
364 1 114.905 5.52351 -41.3564
366 1 118.094 5.52351 -41.3564
368 1 121.283 5.52351 -41.3564
370 1 124.472 5.52351 -41.3564
372 1 127.661 5.52351 -41.3564
374 1 130.85 5.52351 -41.3564
376 1 134.039 5.52351 -41.3564
378 1 137.228 5.52351 -41.3564
380 1 140.417 5.52351 -41.3564
382 1 143.606 5.52351 -41.3564
384 1 146.795 5.52351 -41.3564
386 1 149.984 5.52351 -41.3564
388 1 153.173 5.52351 -41.3564
390 1 156.362 5.52351 -41.3564
392 1 159.551 5.52351 -41.3564
394 1 162.74 5.52351 -41.3564
396 1 165.929 5.52351 -41.3564
398 1 169.118 5.52351 -41.3564
400 1 -39.7619 8.28527 -41.3564
402 1 -36.5729 8.28527 -41.3564
404 1 -33.3839 8.28527 -41.3564
406 1 -30.1949 8.28527 -41.3564
408 1 -27.0059 8.28527 -41.3564
410 1 -23.8169 8.28527 -41.3564
412 1 -20.6279 8.28527 -41.3564
414 1 -17.4389 8.28527 -41.3564
416 1 -14.2499 8.28527 -41.3564
418 1 -11.0609 8.28527 -41.3564
420 1 -7.87187 8.28527 -41.3564
422 1 -4.68287 8.28527 -41.3564
424 1 -1.49387 8.28527 -41.3564
426 1 1.69513 8.28527 -41.3564
428 1 4.88413 8.28527 -41.3564
430 1 8.07313 8.28527 -41.3564
432 1 11.2621 8.28527 -41.3564
434 1 14.4511 8.28527 -41.3564
436 1 17.6401 8.28527 -41.3564
438 1 20.8291 8.28527 -41.3564
440 1 24.0181 8.28527 -41.3564
442 1 27.2071 8.28527 -41.3564
444 1 30.3961 8.28527 -41.3564
446 1 33.5851 8.28527 -41.3564
448 1 36.7741 8.28527 -41.3564
450 1 39.9631 8.28527 -41.3564
452 1 43.1521 8.28527 -41.3564
454 1 46.3411 8.28527 -41.3564
456 1 49.5301 8.28527 -41.3564
458 1 52.7191 8.28527 -41.3564
460 1 55.9081 8.28527 -41.3564
462 1 59.0971 8.28527 -41.3564
464 1 62.2861 8.28527 -41.3564
466 1 65.4751 8.28527 -41.3564
468 1 68.6641 8.28527 -41.3564
470 1 71.8531 8.28527 -41.3564
472 1 75.0421 8.28527 -41.3564
474 1 78.2311 8.28527 -41.3564
476 1 81.4201 8.28527 -41.3564
478 1 84.6091 8.28527 -41.3564
480 1 87.7981 8.28527 -41.3564
482 1 90.9871 8.28527 -41.3564
484 1 94.1761 8.28527 -41.3564
486 1 97.3651 8.28527 -41.3564
488 1 100.554 8.28527 -41.3564
490 1 103.743 8.28527 -41.3564
492 1 106.932 8.28527 -41.3564
494 1 110.121 8.28527 -41.3564
496 1 113.31 8.28527 -41.3564
498 1 116.499 8.28527 -41.3564
500 1 119.688 8.28527 -41.3564
502 1 122.877 8.28527 -41.3564
504 1 126.066 8.28527 -41.3564
506 1 129.255 8.28527 -41.3564
508 1 132.444 8.28527 -41.3564
510 1 135.633 8.28527 -41.3564
512 1 138.822 8.28527 -41.3564
514 1 142.011 8.28527 -41.3564
516 1 145.2 8.28527 -41.3564
518 1 148.389 8.28527 -41.3564
520 1 151.578 8.28527 -41.3564
522 1 154.767 8.28527 -41.3564
524 1 157.956 8.28527 -41.3564
526 1 161.145 8.28527 -41.3564
528 1 164.334 8.28527 -41.3564
530 1 167.523 8.28527 -41.3564
531 1 -41.3564 11.047 -41.3564
533 1 -38.1674 11.047 -41.3564
535 1 -34.9784 11.047 -41.3564
537 1 -31.7894 11.047 -41.3564
539 1 -28.6004 11.047 -41.3564
541 1 -25.4114 11.047 -41.3564
543 1 -22.2224 11.047 -41.3564
545 1 -19.0334 11.047 -41.3564
547 1 -15.8444 11.047 -41.3564
549 1 -12.6554 11.047 -41.3564
551 1 -9.46637 11.047 -41.3564
553 1 -6.27737 11.047 -41.3564
555 1 -3.08837 11.047 -41.3564
557 1 0.100634 11.047 -41.3564
559 1 3.28963 11.047 -41.3564
561 1 6.47863 11.047 -41.3564
563 1 9.66763 11.047 -41.3564
565 1 12.8566 11.047 -41.3564
567 1 16.0456 11.047 -41.3564
569 1 19.2346 11.047 -41.3564
571 1 22.4236 11.047 -41.3564
573 1 25.6126 11.047 -41.3564
575 1 28.8016 11.047 -41.3564
577 1 31.9906 11.047 -41.3564
579 1 35.1796 11.047 -41.3564
581 1 38.3686 11.047 -41.3564
583 1 41.5576 11.047 -41.3564
585 1 44.7466 11.047 -41.3564
587 1 47.9356 11.047 -41.3564
589 1 51.1246 11.047 -41.3564
591 1 54.3136 11.047 -41.3564
593 1 57.5026 11.047 -41.3564
595 1 60.6916 11.047 -41.3564
597 1 63.8806 11.047 -41.3564
599 1 67.0696 11.047 -41.3564
601 1 70.2586 11.047 -41.3564
603 1 73.4476 11.047 -41.3564
605 1 76.6366 11.047 -41.3564
607 1 79.8256 11.047 -41.3564
609 1 83.0146 11.047 -41.3564
611 1 86.2036 11.047 -41.3564
613 1 89.3926 11.047 -41.3564
615 1 92.5816 11.047 -41.3564
617 1 95.7706 11.047 -41.3564
619 1 98.9596 11.047 -41.3564
621 1 102.149 11.047 -41.3564
623 1 105.338 11.047 -41.3564
625 1 108.527 11.047 -41.3564
627 1 111.716 11.047 -41.3564
629 1 114.905 11.047 -41.3564
631 1 118.094 11.047 -41.3564
633 1 121.283 11.047 -41.3564
635 1 124.472 11.047 -41.3564
637 1 127.661 11.047 -41.3564
639 1 130.85 11.047 -41.3564
641 1 134.039 11.047 -41.3564
643 1 137.228 11.047 -41.3564
645 1 140.417 11.047 -41.3564
647 1 143.606 11.047 -41.3564
649 1 146.795 11.047 -41.3564
651 1 149.984 11.047 -41.3564
653 1 153.173 11.047 -41.3564
655 1 156.362 11.047 -41.3564
657 1 159.551 11.047 -41.3564
659 1 162.74 11.047 -41.3564
661 1 165.929 11.047 -41.3564
663 1 169.118 11.047 -41.3564
665 1 -39.7619 13.8088 -41.3564
667 1 -36.5729 13.8088 -41.3564
669 1 -33.3839 13.8088 -41.3564
671 1 -30.1949 13.8088 -41.3564
673 1 -27.0059 13.8088 -41.3564
675 1 -23.8169 13.8088 -41.3564
677 1 -20.6279 13.8088 -41.3564
679 1 -17.4389 13.8088 -41.3564
681 1 -14.2499 13.8088 -41.3564
683 1 -11.0609 13.8088 -41.3564
685 1 -7.87187 13.8088 -41.3564
687 1 -4.68287 13.8088 -41.3564
689 1 -1.49387 13.8088 -41.3564
691 1 1.69513 13.8088 -41.3564
693 1 4.88413 13.8088 -41.3564
695 1 8.07313 13.8088 -41.3564
697 1 11.2621 13.8088 -41.3564
699 1 14.4511 13.8088 -41.3564
701 1 17.6401 13.8088 -41.3564
703 1 20.8291 13.8088 -41.3564
705 1 24.0181 13.8088 -41.3564
707 1 27.2071 13.8088 -41.3564
709 1 30.3961 13.8088 -41.3564
711 1 33.5851 13.8088 -41.3564
713 1 36.7741 13.8088 -41.3564
715 1 39.9631 13.8088 -41.3564
717 1 43.1521 13.8088 -41.3564
719 1 46.3411 13.8088 -41.3564
721 1 49.5301 13.8088 -41.3564
723 1 52.7191 13.8088 -41.3564
725 1 55.9081 13.8088 -41.3564
727 1 59.0971 13.8088 -41.3564
729 1 62.2861 13.8088 -41.3564
731 1 65.4751 13.8088 -41.3564
733 1 68.6641 13.8088 -41.3564
735 1 71.8531 13.8088 -41.3564
737 1 75.0421 13.8088 -41.3564
739 1 78.2311 13.8088 -41.3564
741 1 81.4201 13.8088 -41.3564
743 1 84.6091 13.8088 -41.3564
745 1 87.7981 13.8088 -41.3564
747 1 90.9871 13.8088 -41.3564
749 1 94.1761 13.8088 -41.3564
751 1 97.3651 13.8088 -41.3564
753 1 100.554 13.8088 -41.3564
755 1 103.743 13.8088 -41.3564
757 1 106.932 13.8088 -41.3564
759 1 110.121 13.8088 -41.3564
761 1 113.31 13.8088 -41.3564
763 1 116.499 13.8088 -41.3564
765 1 119.688 13.8088 -41.3564
767 1 122.877 13.8088 -41.3564
769 1 126.066 13.8088 -41.3564
771 1 129.255 13.8088 -41.3564
773 1 132.444 13.8088 -41.3564
775 1 135.633 13.8088 -41.3564
777 1 138.822 13.8088 -41.3564
779 1 142.011 13.8088 -41.3564
781 1 145.2 13.8088 -41.3564
783 1 148.389 13.8088 -41.3564
785 1 151.578 13.8088 -41.3564
787 1 154.767 13.8088 -41.3564
789 1 157.956 13.8088 -41.3564
791 1 161.145 13.8088 -41.3564
793 1 164.334 13.8088 -41.3564
795 1 167.523 13.8088 -41.3564
796 1 -41.3564 16.5705 -41.3564
798 1 -38.1674 16.5705 -41.3564
800 1 -34.9784 16.5705 -41.3564
802 1 -31.7894 16.5705 -41.3564
804 1 -28.6004 16.5705 -41.3564
806 1 -25.4114 16.5705 -41.3564
808 1 -22.2224 16.5705 -41.3564
810 1 -19.0334 16.5705 -41.3564
812 1 -15.8444 16.5705 -41.3564
814 1 -12.6554 16.5705 -41.3564
816 1 -9.46637 16.5705 -41.3564
818 1 -6.27737 16.5705 -41.3564
820 1 -3.08837 16.5705 -41.3564
822 1 0.100634 16.5705 -41.3564
824 1 3.28963 16.5705 -41.3564
826 1 6.47863 16.5705 -41.3564
828 1 9.66763 16.5705 -41.3564
830 1 12.8566 16.5705 -41.3564
832 1 16.0456 16.5705 -41.3564
834 1 19.2346 16.5705 -41.3564
836 1 22.4236 16.5705 -41.3564
838 1 25.6126 16.5705 -41.3564
840 1 28.8016 16.5705 -41.3564
842 1 31.9906 16.5705 -41.3564
844 1 35.1796 16.5705 -41.3564
846 1 38.3686 16.5705 -41.3564
848 1 41.5576 16.5705 -41.3564
850 1 44.7466 16.5705 -41.3564
852 1 47.9356 16.5705 -41.3564
854 1 51.1246 16.5705 -41.3564
856 1 54.3136 16.5705 -41.3564
858 1 57.5026 16.5705 -41.3564
860 1 60.6916 16.5705 -41.3564
862 1 63.8806 16.5705 -41.3564
864 1 67.0696 16.5705 -41.3564
866 1 70.2586 16.5705 -41.3564
868 1 73.4476 16.5705 -41.3564
870 1 76.6366 16.5705 -41.3564
872 1 79.8256 16.5705 -41.3564
874 1 83.0146 16.5705 -41.3564
876 1 86.2036 16.5705 -41.3564
878 1 89.3926 16.5705 -41.3564
880 1 92.5816 16.5705 -41.3564
882 1 95.7706 16.5705 -41.3564
884 1 98.9596 16.5705 -41.3564
886 1 102.149 16.5705 -41.3564
888 1 105.338 16.5705 -41.3564
890 1 108.527 16.5705 -41.3564
892 1 111.716 16.5705 -41.3564
894 1 114.905 16.5705 -41.3564
896 1 118.094 16.5705 -41.3564
898 1 121.283 16.5705 -41.3564
900 1 124.472 16.5705 -41.3564
902 1 127.661 16.5705 -41.3564
904 1 130.85 16.5705 -41.3564
906 1 134.039 16.5705 -41.3564
908 1 137.228 16.5705 -41.3564
910 1 140.417 16.5705 -41.3564
912 1 143.606 16.5705 -41.3564
914 1 146.795 16.5705 -41.3564
916 1 149.984 16.5705 -41.3564
918 1 153.173 16.5705 -41.3564
920 1 156.362 16.5705 -41.3564
922 1 159.551 16.5705 -41.3564
924 1 162.74 16.5705 -41.3564
926 1 165.929 16.5705 -41.3564
928 1 169.118 16.5705 -41.3564
930 1 -39.7619 19.3323 -41.3564
932 1 -36.5729 19.3323 -41.3564
934 1 -33.3839 19.3323 -41.3564
936 1 -30.1949 19.3323 -41.3564
938 1 -27.0059 19.3323 -41.3564
940 1 -23.8169 19.3323 -41.3564
942 1 -20.6279 19.3323 -41.3564
944 1 -17.4389 19.3323 -41.3564
946 1 -14.2499 19.3323 -41.3564
948 1 -11.0609 19.3323 -41.3564
950 1 -7.87187 19.3323 -41.3564
952 1 -4.68287 19.3323 -41.3564
954 1 -1.49387 19.3323 -41.3564
956 1 1.69513 19.3323 -41.3564
958 1 4.88413 19.3323 -41.3564
960 1 8.07313 19.3323 -41.3564
962 1 11.2621 19.3323 -41.3564
964 1 14.4511 19.3323 -41.3564
966 1 17.6401 19.3323 -41.3564
968 1 20.8291 19.3323 -41.3564
970 1 24.0181 19.3323 -41.3564
972 1 27.2071 19.3323 -41.3564
974 1 30.3961 19.3323 -41.3564
976 1 33.5851 19.3323 -41.3564
978 1 36.7741 19.3323 -41.3564
980 1 39.9631 19.3323 -41.3564
982 1 43.1521 19.3323 -41.3564
984 1 46.3411 19.3323 -41.3564
986 1 49.5301 19.3323 -41.3564
988 1 52.7191 19.3323 -41.3564
990 1 55.9081 19.3323 -41.3564
992 1 59.0971 19.3323 -41.3564
994 1 62.2861 19.3323 -41.3564
996 1 65.4751 19.3323 -41.3564
998 1 68.6641 19.3323 -41.3564
1000 1 71.8531 19.3323 -41.3564
1002 1 75.0421 19.3323 -41.3564
1004 1 78.2311 19.3323 -41.3564
1006 1 81.4201 19.3323 -41.3564
1008 1 84.6091 19.3323 -41.3564
1010 1 87.7981 19.3323 -41.3564
1012 1 90.9871 19.3323 -41.3564
1014 1 94.1761 19.3323 -41.3564
1016 1 97.3651 19.3323 -41.3564
1018 1 100.554 19.3323 -41.3564
1020 1 103.743 19.3323 -41.3564
1022 1 106.932 19.3323 -41.3564
1024 1 110.121 19.3323 -41.3564
1026 1 113.31 19.3323 -41.3564
1028 1 116.499 19.3323 -41.3564
1030 1 119.688 19.3323 -41.3564
1032 1 122.877 19.3323 -41.3564
1034 1 126.066 19.3323 -41.3564
1036 1 129.255 19.3323 -41.3564
1038 1 132.444 19.3323 -41.3564
1040 1 135.633 19.3323 -41.3564
1042 1 138.822 19.3323 -41.3564
1044 1 142.011 19.3323 -41.3564
1046 1 145.2 19.3323 -41.3564
1048 1 148.389 19.3323 -41.3564
1050 1 151.578 19.3323 -41.3564
1052 1 154.767 19.3323 -41.3564
1054 1 157.956 19.3323 -41.3564
1056 1 161.145 19.3323 -41.3564
1058 1 164.334 19.3323 -41.3564
1060 1 167.523 19.3323 -41.3564
1061 1 -41.3564 22.094 -41.3564
1063 1 -38.1674 22.094 -41.3564
1065 1 -34.9784 22.094 -41.3564
1067 1 -31.7894 22.094 -41.3564
1069 1 -28.6004 22.094 -41.3564
1071 1 -25.4114 22.094 -41.3564
1073 1 -22.2224 22.094 -41.3564
1075 1 -19.0334 22.094 -41.3564
1077 1 -15.8444 22.094 -41.3564
1079 1 -12.6554 22.094 -41.3564
1081 1 -9.46637 22.094 -41.3564
1083 1 -6.27737 22.094 -41.3564
1085 1 -3.08837 22.094 -41.3564
1087 1 0.100634 22.094 -41.3564
1089 1 3.28963 22.094 -41.3564
1091 1 6.47863 22.094 -41.3564
1093 1 9.66763 22.094 -41.3564
1095 1 12.8566 22.094 -41.3564
1097 1 16.0456 22.094 -41.3564
1099 1 19.2346 22.094 -41.3564
1101 1 22.4236 22.094 -41.3564
1103 1 25.6126 22.094 -41.3564
1105 1 28.8016 22.094 -41.3564
1107 1 31.9906 22.094 -41.3564
1109 1 35.1796 22.094 -41.3564
1111 1 38.3686 22.094 -41.3564
1113 1 41.5576 22.094 -41.3564
1115 1 44.7466 22.094 -41.3564
1117 1 47.9356 22.094 -41.3564
1119 1 51.1246 22.094 -41.3564
1121 1 54.3136 22.094 -41.3564
1123 1 57.5026 22.094 -41.3564
1125 1 60.6916 22.094 -41.3564
1127 1 63.8806 22.094 -41.3564
1129 1 67.0696 22.094 -41.3564
1131 1 70.2586 22.094 -41.3564
1133 1 73.4476 22.094 -41.3564
1135 1 76.6366 22.094 -41.3564
1137 1 79.8256 22.094 -41.3564
1139 1 83.0146 22.094 -41.3564
1141 1 86.2036 22.094 -41.3564
1143 1 89.3926 22.094 -41.3564
1145 1 92.5816 22.094 -41.3564
1147 1 95.7706 22.094 -41.3564
1149 1 98.9596 22.094 -41.3564
1151 1 102.149 22.094 -41.3564
1153 1 105.338 22.094 -41.3564
1155 1 108.527 22.094 -41.3564
1157 1 111.716 22.094 -41.3564
1159 1 114.905 22.094 -41.3564
1161 1 118.094 22.094 -41.3564
1163 1 121.283 22.094 -41.3564
1165 1 124.472 22.094 -41.3564
1167 1 127.661 22.094 -41.3564
1169 1 130.85 22.094 -41.3564
1171 1 134.039 22.094 -41.3564
1173 1 137.228 22.094 -41.3564
1175 1 140.417 22.094 -41.3564
1177 1 143.606 22.094 -41.3564
1179 1 146.795 22.094 -41.3564
1181 1 149.984 22.094 -41.3564
1183 1 153.173 22.094 -41.3564
1185 1 156.362 22.094 -41.3564
1187 1 159.551 22.094 -41.3564
1189 1 162.74 22.094 -41.3564
1191 1 165.929 22.094 -41.3564
1193 1 169.118 22.094 -41.3564
1195 1 -39.7619 24.8558 -41.3564
1197 1 -36.5729 24.8558 -41.3564
1199 1 -33.3839 24.8558 -41.3564
1201 1 -30.1949 24.8558 -41.3564
1203 1 -27.0059 24.8558 -41.3564
1205 1 -23.8169 24.8558 -41.3564
1207 1 -20.6279 24.8558 -41.3564
1209 1 -17.4389 24.8558 -41.3564
1211 1 -14.2499 24.8558 -41.3564
1213 1 -11.0609 24.8558 -41.3564
1215 1 -7.87187 24.8558 -41.3564
1217 1 -4.68287 24.8558 -41.3564
1219 1 -1.49387 24.8558 -41.3564
1221 1 1.69513 24.8558 -41.3564
1223 1 4.88413 24.8558 -41.3564
1225 1 8.07313 24.8558 -41.3564
1227 1 11.2621 24.8558 -41.3564
1229 1 14.4511 24.8558 -41.3564
1231 1 17.6401 24.8558 -41.3564
1233 1 20.8291 24.8558 -41.3564
1235 1 24.0181 24.8558 -41.3564
1237 1 27.2071 24.8558 -41.3564
1239 1 30.3961 24.8558 -41.3564
1241 1 33.5851 24.8558 -41.3564
1243 1 36.7741 24.8558 -41.3564
1245 1 39.9631 24.8558 -41.3564
1247 1 43.1521 24.8558 -41.3564
1249 1 46.3411 24.8558 -41.3564
1251 1 49.5301 24.8558 -41.3564
1253 1 52.7191 24.8558 -41.3564
1255 1 55.9081 24.8558 -41.3564
1257 1 59.0971 24.8558 -41.3564
1259 1 62.2861 24.8558 -41.3564
1261 1 65.4751 24.8558 -41.3564
1263 1 68.6641 24.8558 -41.3564
1265 1 71.8531 24.8558 -41.3564
1267 1 75.0421 24.8558 -41.3564
1269 1 78.2311 24.8558 -41.3564
1271 1 81.4201 24.8558 -41.3564
1273 1 84.6091 24.8558 -41.3564
1275 1 87.7981 24.8558 -41.3564
1277 1 90.9871 24.8558 -41.3564
1279 1 94.1761 24.8558 -41.3564
1281 1 97.3651 24.8558 -41.3564
1283 1 100.554 24.8558 -41.3564
1285 1 103.743 24.8558 -41.3564
1287 1 106.932 24.8558 -41.3564
1289 1 110.121 24.8558 -41.3564
1291 1 113.31 24.8558 -41.3564
1293 1 116.499 24.8558 -41.3564
1295 1 119.688 24.8558 -41.3564
1297 1 122.877 24.8558 -41.3564
1299 1 126.066 24.8558 -41.3564
1301 1 129.255 24.8558 -41.3564
1303 1 132.444 24.8558 -41.3564
1305 1 135.633 24.8558 -41.3564
1307 1 138.822 24.8558 -41.3564
1309 1 142.011 24.8558 -41.3564
1311 1 145.2 24.8558 -41.3564
1313 1 148.389 24.8558 -41.3564
1315 1 151.578 24.8558 -41.3564
1317 1 154.767 24.8558 -41.3564
1319 1 157.956 24.8558 -41.3564
1321 1 161.145 24.8558 -41.3564
1323 1 164.334 24.8558 -41.3564
1325 1 167.523 24.8558 -41.3564
1326 1 -41.3564 27.6176 -41.3564
1328 1 -38.1674 27.6176 -41.3564
1330 1 -34.9784 27.6176 -41.3564
1332 1 -31.7894 27.6176 -41.3564
1334 1 -28.6004 27.6176 -41.3564
1336 1 -25.4114 27.6176 -41.3564
1338 1 -22.2224 27.6176 -41.3564
1340 1 -19.0334 27.6176 -41.3564
1342 1 -15.8444 27.6176 -41.3564
1344 1 -12.6554 27.6176 -41.3564
1346 1 -9.46637 27.6176 -41.3564
1348 1 -6.27737 27.6176 -41.3564
1350 1 -3.08837 27.6176 -41.3564
1352 1 0.100634 27.6176 -41.3564
1354 1 3.28963 27.6176 -41.3564
1356 1 6.47863 27.6176 -41.3564
1358 1 9.66763 27.6176 -41.3564
1360 1 12.8566 27.6176 -41.3564
1362 1 16.0456 27.6176 -41.3564
1364 1 19.2346 27.6176 -41.3564
1366 1 22.4236 27.6176 -41.3564
1368 1 25.6126 27.6176 -41.3564
1370 1 28.8016 27.6176 -41.3564
1372 1 31.9906 27.6176 -41.3564
1374 1 35.1796 27.6176 -41.3564
1376 1 38.3686 27.6176 -41.3564
1378 1 41.5576 27.6176 -41.3564
1380 1 44.7466 27.6176 -41.3564
1382 1 47.9356 27.6176 -41.3564
1384 1 51.1246 27.6176 -41.3564
1386 1 54.3136 27.6176 -41.3564
1388 1 57.5026 27.6176 -41.3564
1390 1 60.6916 27.6176 -41.3564
1392 1 63.8806 27.6176 -41.3564
1394 1 67.0696 27.6176 -41.3564
1396 1 70.2586 27.6176 -41.3564
1398 1 73.4476 27.6176 -41.3564
1400 1 76.6366 27.6176 -41.3564
1402 1 79.8256 27.6176 -41.3564
1404 1 83.0146 27.6176 -41.3564
1406 1 86.2036 27.6176 -41.3564
1408 1 89.3926 27.6176 -41.3564
1410 1 92.5816 27.6176 -41.3564
1412 1 95.7706 27.6176 -41.3564
1414 1 98.9596 27.6176 -41.3564
1416 1 102.149 27.6176 -41.3564
1418 1 105.338 27.6176 -41.3564
1420 1 108.527 27.6176 -41.3564
1422 1 111.716 27.6176 -41.3564
1424 1 114.905 27.6176 -41.3564
1426 1 118.094 27.6176 -41.3564
1428 1 121.283 27.6176 -41.3564
1430 1 124.472 27.6176 -41.3564
1432 1 127.661 27.6176 -41.3564
1434 1 130.85 27.6176 -41.3564
1436 1 134.039 27.6176 -41.3564
1438 1 137.228 27.6176 -41.3564
1440 1 140.417 27.6176 -41.3564
1442 1 143.606 27.6176 -41.3564
1444 1 146.795 27.6176 -41.3564
1446 1 149.984 27.6176 -41.3564
1448 1 153.173 27.6176 -41.3564
1450 1 156.362 27.6176 -41.3564
1452 1 159.551 27.6176 -41.3564
1454 1 162.74 27.6176 -41.3564
1456 1 165.929 27.6176 -41.3564
1458 1 169.118 27.6176 -41.3564
1460 1 -39.7619 30.3793 -41.3564
1462 1 -36.5729 30.3793 -41.3564
1464 1 -33.3839 30.3793 -41.3564
1466 1 -30.1949 30.3793 -41.3564
1468 1 -27.0059 30.3793 -41.3564
1470 1 -23.8169 30.3793 -41.3564
1472 1 -20.6279 30.3793 -41.3564
1474 1 -17.4389 30.3793 -41.3564
1476 1 -14.2499 30.3793 -41.3564
1478 1 -11.0609 30.3793 -41.3564
1480 1 -7.87187 30.3793 -41.3564
1482 1 -4.68287 30.3793 -41.3564
1484 1 -1.49387 30.3793 -41.3564
1486 1 1.69513 30.3793 -41.3564
1488 1 4.88413 30.3793 -41.3564
1490 1 8.07313 30.3793 -41.3564
1492 1 11.2621 30.3793 -41.3564
1494 1 14.4511 30.3793 -41.3564
1496 1 17.6401 30.3793 -41.3564
1498 1 20.8291 30.3793 -41.3564
1500 1 24.0181 30.3793 -41.3564
1502 1 27.2071 30.3793 -41.3564
1504 1 30.3961 30.3793 -41.3564
1506 1 33.5851 30.3793 -41.3564
1508 1 36.7741 30.3793 -41.3564
1510 1 39.9631 30.3793 -41.3564
1512 1 43.1521 30.3793 -41.3564
1514 1 46.3411 30.3793 -41.3564
1516 1 49.5301 30.3793 -41.3564
1518 1 52.7191 30.3793 -41.3564
1520 1 55.9081 30.3793 -41.3564
1522 1 59.0971 30.3793 -41.3564
1524 1 62.2861 30.3793 -41.3564
1526 1 65.4751 30.3793 -41.3564
1528 1 68.6641 30.3793 -41.3564
1530 1 71.8531 30.3793 -41.3564
1532 1 75.0421 30.3793 -41.3564
1534 1 78.2311 30.3793 -41.3564
1536 1 81.4201 30.3793 -41.3564
1538 1 84.6091 30.3793 -41.3564
1540 1 87.7981 30.3793 -41.3564
1542 1 90.9871 30.3793 -41.3564
1544 1 94.1761 30.3793 -41.3564
1546 1 97.3651 30.3793 -41.3564
1548 1 100.554 30.3793 -41.3564
1550 1 103.743 30.3793 -41.3564
1552 1 106.932 30.3793 -41.3564
1554 1 110.121 30.3793 -41.3564
1556 1 113.31 30.3793 -41.3564
1558 1 116.499 30.3793 -41.3564
1560 1 119.688 30.3793 -41.3564
1562 1 122.877 30.3793 -41.3564
1564 1 126.066 30.3793 -41.3564
1566 1 129.255 30.3793 -41.3564
1568 1 132.444 30.3793 -41.3564
1570 1 135.633 30.3793 -41.3564
1572 1 138.822 30.3793 -41.3564
1574 1 142.011 30.3793 -41.3564
1576 1 145.2 30.3793 -41.3564
1578 1 148.389 30.3793 -41.3564
1580 1 151.578 30.3793 -41.3564
1582 1 154.767 30.3793 -41.3564
1584 1 157.956 30.3793 -41.3564
1586 1 161.145 30.3793 -41.3564
1588 1 164.334 30.3793 -41.3564
1590 1 167.523 30.3793 -41.3564
1591 1 -41.3564 33.1411 -41.3564
1592 1 -38.1674 33.1411 -41.3564
1593 1 -34.9784 33.1411 -41.3564
1594 1 -31.7894 33.1411 -41.3564
1595 1 -28.6004 33.1411 -41.3564
1596 1 -25.4114 33.1411 -41.3564
1597 1 -22.2224 33.1411 -41.3564
1598 1 -19.0334 33.1411 -41.3564
1599 1 -15.8444 33.1411 -41.3564
1600 1 -12.6554 33.1411 -41.3564
1601 1 -9.46637 33.1411 -41.3564
1602 1 -6.27737 33.1411 -41.3564
1603 1 -3.08837 33.1411 -41.3564
1604 1 0.100634 33.1411 -41.3564
1605 1 3.28963 33.1411 -41.3564
1606 1 6.47863 33.1411 -41.3564
1607 1 9.66763 33.1411 -41.3564
1608 1 12.8566 33.1411 -41.3564
1609 1 16.0456 33.1411 -41.3564
1610 1 19.2346 33.1411 -41.3564
1611 1 22.4236 33.1411 -41.3564
1612 1 25.6126 33.1411 -41.3564
1613 1 28.8016 33.1411 -41.3564
1614 1 31.9906 33.1411 -41.3564
1615 1 35.1796 33.1411 -41.3564
1616 1 38.3686 33.1411 -41.3564
1617 1 41.5576 33.1411 -41.3564
1618 1 44.7466 33.1411 -41.3564
1619 1 47.9356 33.1411 -41.3564
1620 1 51.1246 33.1411 -41.3564
1621 1 54.3136 33.1411 -41.3564
1622 1 57.5026 33.1411 -41.3564
1623 1 60.6916 33.1411 -41.3564
1624 1 63.8806 33.1411 -41.3564
1625 1 67.0696 33.1411 -41.3564
1626 1 70.2586 33.1411 -41.3564
1627 1 73.4476 33.1411 -41.3564
1628 1 76.6366 33.1411 -41.3564
1629 1 79.8256 33.1411 -41.3564
1630 1 83.0146 33.1411 -41.3564
1631 1 86.2036 33.1411 -41.3564
1632 1 89.3926 33.1411 -41.3564
1633 1 92.5816 33.1411 -41.3564
1634 1 95.7706 33.1411 -41.3564
1635 1 98.9596 33.1411 -41.3564
1636 1 102.149 33.1411 -41.3564
1637 1 105.338 33.1411 -41.3564
1638 1 108.527 33.1411 -41.3564
1639 1 111.716 33.1411 -41.3564
1640 1 114.905 33.1411 -41.3564
1641 1 118.094 33.1411 -41.3564
1642 1 121.283 33.1411 -41.3564
1643 1 124.472 33.1411 -41.3564
1644 1 127.661 33.1411 -41.3564
1645 1 130.85 33.1411 -41.3564
1646 1 134.039 33.1411 -41.3564
1647 1 137.228 33.1411 -41.3564
1648 1 140.417 33.1411 -41.3564
1649 1 143.606 33.1411 -41.3564
1650 1 146.795 33.1411 -41.3564
1651 1 149.984 33.1411 -41.3564
1652 1 153.173 33.1411 -41.3564
1653 1 156.362 33.1411 -41.3564
1654 1 159.551 33.1411 -41.3564
1655 1 162.74 33.1411 -41.3564
1656 1 165.929 33.1411 -41.3564
1657 1 169.118 33.1411 -41.3564
2 1 -39.7939 1.01668 -33.0717
4 1 -36.6049 1.01668 -33.0717
6 1 -33.4159 1.01668 -33.0717
8 1 -30.2269 1.01668 -33.0717
10 1 -27.0379 1.01668 -33.0717
12 1 -23.8489 1.01668 -33.0717
14 1 -20.6599 1.01668 -33.0717
16 1 -17.4709 1.01668 -33.0717
18 1 -14.2819 1.01668 -33.0717
20 1 -11.0929 1.01668 -33.0717
22 1 -7.90386 1.01668 -33.0717
24 1 -4.71486 1.01668 -33.0717
26 1 -1.52586 1.01668 -33.0717
28 1 1.66314 1.01668 -33.0717
30 1 4.85214 1.01668 -33.0717
32 1 8.04114 1.01668 -33.0717
34 1 11.2301 1.01668 -33.0717
36 1 14.4191 1.01668 -33.0717
38 1 17.6081 1.01668 -33.0717
40 1 20.7971 1.01668 -33.0717
42 1 23.9861 1.01668 -33.0717
44 1 27.1751 1.01668 -33.0717
46 1 30.3641 1.01668 -33.0717
48 1 33.5531 1.01668 -33.0717
50 1 36.7421 1.01668 -33.0717
52 1 39.9311 1.01668 -33.0717
54 1 43.1201 1.01668 -33.0717
56 1 46.3091 1.01668 -33.0717
58 1 49.4981 1.01668 -33.0717
60 1 52.6871 1.01668 -33.0717
62 1 55.8761 1.01668 -33.0717
64 1 59.0651 1.01668 -33.0717
66 1 62.2541 1.01668 -33.0717
68 1 65.4431 1.01668 -33.0717
70 1 68.6321 1.01668 -33.0717
72 1 71.8211 1.01668 -33.0717
74 1 75.0101 1.01668 -33.0717
76 1 78.1991 1.01668 -33.0717
78 1 81.3881 1.01668 -33.0717
80 1 84.5771 1.01668 -33.0717
82 1 87.7661 1.01668 -33.0717
84 1 90.9551 1.01668 -33.0717
86 1 94.1441 1.01668 -33.0717
88 1 97.3331 1.01668 -33.0717
90 1 100.522 1.01668 -33.0717
92 1 103.711 1.01668 -33.0717
94 1 106.9 1.01668 -33.0717
96 1 110.089 1.01668 -33.0717
98 1 113.278 1.01668 -33.0717
100 1 116.467 1.01668 -33.0717
102 1 119.656 1.01668 -33.0717
104 1 122.845 1.01668 -33.0717
106 1 126.034 1.01668 -33.0717
108 1 129.223 1.01668 -33.0717
110 1 132.412 1.01668 -33.0717
112 1 135.601 1.01668 -33.0717
114 1 138.79 1.01668 -33.0717
116 1 141.979 1.01668 -33.0717
118 1 145.168 1.01668 -33.0717
120 1 148.357 1.01668 -33.0717
122 1 151.546 1.01668 -33.0717
124 1 154.735 1.01668 -33.0717
126 1 157.924 1.01668 -33.0717
128 1 161.113 1.01668 -33.0717
130 1 164.302 1.01668 -33.0717
132 1 167.491 1.01668 -33.0717
134 1 -41.3562 3.68225 -33.0889
136 1 -38.1994 3.77843 -33.0717
138 1 -35.0104 3.77843 -33.0717
140 1 -31.8214 3.77843 -33.0717
142 1 -28.6324 3.77843 -33.0717
144 1 -25.4434 3.77843 -33.0717
146 1 -22.2544 3.77843 -33.0717
148 1 -19.0654 3.77843 -33.0717
150 1 -15.8764 3.77843 -33.0717
152 1 -12.6874 3.77843 -33.0717
154 1 -9.49836 3.77843 -33.0717
156 1 -6.30936 3.77843 -33.0717
158 1 -3.12036 3.77843 -33.0717
160 1 0.0686399 3.77843 -33.0717
162 1 3.25764 3.77843 -33.0717
164 1 6.44664 3.77843 -33.0717
166 1 9.63564 3.77843 -33.0717
168 1 12.8246 3.77843 -33.0717
170 1 16.0136 3.77843 -33.0717
172 1 19.2026 3.77843 -33.0717
174 1 22.3916 3.77843 -33.0717
176 1 25.5806 3.77843 -33.0717
178 1 28.7696 3.77843 -33.0717
180 1 31.9586 3.77843 -33.0717
182 1 35.1476 3.77843 -33.0717
184 1 38.3366 3.77843 -33.0717
186 1 41.5256 3.77843 -33.0717
188 1 44.7146 3.77843 -33.0717
190 1 47.9036 3.77843 -33.0717
192 1 51.0926 3.77843 -33.0717
194 1 54.2816 3.77843 -33.0717
196 1 57.4706 3.77843 -33.0717