ITEM: TIMESTEP
22000
ITEM: NUMBER OF ATOMS
14121
ITEM: BOX BOUNDS ss ss ss
-1.0214157267566335e+02 7.1882296553066760e+02
-6.4535029194583924e+00 9.0463135648434118e+01
-1.0212713637498055e+02 5.8207075675563044e+02
ITEM: ATOMS id type x y z
1 1 -102.165 0 -102.165
3 1 -98.9763 0 -102.165
5 1 -95.7873 0 -102.165
7 1 -92.5983 0 -102.165
9 1 -89.4093 0 -102.165
11 1 -86.2203 0 -102.165
13 1 -83.0313 0 -102.165
15 1 -79.8423 0 -102.165
17 1 -76.6533 0 -102.165
19 1 -73.4643 0 -102.165
21 1 -70.2753 0 -102.165
23 1 -67.0863 0 -102.165
25 1 -63.8973 0 -102.165
27 1 -60.7083 0 -102.165
29 1 -57.5193 0 -102.165
31 1 -54.3303 0 -102.165
33 1 -51.1413 0 -102.165
35 1 -47.9523 0 -102.165
37 1 -44.7633 0 -102.165
39 1 -41.5743 0 -102.165
41 1 -38.3853 0 -102.165
43 1 -35.1963 0 -102.165
45 1 -32.0073 0 -102.165
47 1 -28.8183 0 -102.165
49 1 -25.6293 0 -102.165
51 1 -22.4403 0 -102.165
53 1 -19.2513 0 -102.165
55 1 -16.0623 0 -102.165
57 1 -12.8733 0 -102.165
59 1 -9.68433 0 -102.165
61 1 -6.49533 0 -102.165
63 1 -3.30633 0 -102.165
65 1 -0.117328 0 -102.165
67 1 3.07167 0 -102.165
69 1 6.26067 0 -102.165
71 1 9.44967 0 -102.165
73 1 12.6387 0 -102.165
75 1 15.8277 0 -102.165
77 1 19.0167 0 -102.165
79 1 22.2057 0 -102.165
81 1 25.3947 0 -102.165
83 1 28.5837 0 -102.165
85 1 31.7727 0 -102.165
87 1 34.9617 0 -102.165
89 1 38.1507 0 -102.165
91 1 41.3397 0 -102.165
93 1 44.5287 0 -102.165
95 1 47.7177 0 -102.165
97 1 50.9067 0 -102.165
99 1 54.0957 0 -102.165
101 1 57.2847 0 -102.165
103 1 60.4737 0 -102.165
105 1 63.6627 0 -102.165
107 1 66.8517 0 -102.165
109 1 70.0407 0 -102.165
111 1 73.2297 0 -102.165
113 1 76.4187 0 -102.165
115 1 79.6077 0 -102.165
117 1 82.7967 0 -102.165
119 1 85.9857 0 -102.165
121 1 89.1747 0 -102.165
123 1 92.3637 0 -102.165
125 1 95.5527 0 -102.165
127 1 98.7417 0 -102.165
129 1 101.931 0 -102.165
131 1 105.12 0 -102.165
133 1 108.309 0 -102.165
135 1 -100.571 2.76176 -102.165
137 1 -97.3818 2.76176 -102.165
139 1 -94.1928 2.76176 -102.165
141 1 -91.0038 2.76176 -102.165
143 1 -87.8148 2.76176 -102.165
145 1 -84.6258 2.76176 -102.165
147 1 -81.4368 2.76176 -102.165
149 1 -78.2478 2.76176 -102.165
151 1 -75.0588 2.76176 -102.165
153 1 -71.8698 2.76176 -102.165
155 1 -68.6808 2.76176 -102.165
157 1 -65.4918 2.76176 -102.165
159 1 -62.3028 2.76176 -102.165
161 1 -59.1138 2.76176 -102.165
163 1 -55.9248 2.76176 -102.165
165 1 -52.7358 2.76176 -102.165
167 1 -49.5468 2.76176 -102.165
169 1 -46.3578 2.76176 -102.165
171 1 -43.1688 2.76176 -102.165
173 1 -39.9798 2.76176 -102.165
175 1 -36.7908 2.76176 -102.165
177 1 -33.6018 2.76176 -102.165
179 1 -30.4128 2.76176 -102.165
181 1 -27.2238 2.76176 -102.165
183 1 -24.0348 2.76176 -102.165
185 1 -20.8458 2.76176 -102.165
187 1 -17.6568 2.76176 -102.165
189 1 -14.4678 2.76176 -102.165
191 1 -11.2788 2.76176 -102.165
193 1 -8.08983 2.76176 -102.165
195 1 -4.90083 2.76176 -102.165
197 1 -1.71183 2.76176 -102.165
199 1 1.47717 2.76176 -102.165
201 1 4.66617 2.76176 -102.165
203 1 7.85517 2.76176 -102.165
205 1 11.0442 2.76176 -102.165
207 1 14.2332 2.76176 -102.165
209 1 17.4222 2.76176 -102.165
211 1 20.6112 2.76176 -102.165
213 1 23.8002 2.76176 -102.165
215 1 26.9892 2.76176 -102.165
217 1 30.1782 2.76176 -102.165
219 1 33.3672 2.76176 -102.165
221 1 36.5562 2.76176 -102.165
223 1 39.7452 2.76176 -102.165
225 1 42.9342 2.76176 -102.165
227 1 46.1232 2.76176 -102.165
229 1 49.3122 2.76176 -102.165
231 1 52.5012 2.76176 -102.165
233 1 55.6902 2.76176 -102.165
235 1 58.8792 2.76176 -102.165
237 1 62.0682 2.76176 -102.165
239 1 65.2572 2.76176 -102.165
241 1 68.4462 2.76176 -102.165
243 1 71.6352 2.76176 -102.165
245 1 74.8242 2.76176 -102.165
247 1 78.0132 2.76176 -102.165
249 1 81.2022 2.76176 -102.165
251 1 84.3912 2.76176 -102.165
253 1 87.5802 2.76176 -102.165
255 1 90.7692 2.76176 -102.165
257 1 93.9582 2.76176 -102.165
259 1 97.1472 2.76176 -102.165
261 1 100.336 2.76176 -102.165
263 1 103.525 2.76176 -102.165
265 1 106.714 2.76176 -102.165
266 1 -102.165 5.52351 -102.165
268 1 -98.9763 5.52351 -102.165
270 1 -95.7873 5.52351 -102.165
272 1 -92.5983 5.52351 -102.165
274 1 -89.4093 5.52351 -102.165
276 1 -86.2203 5.52351 -102.165
278 1 -83.0313 5.52351 -102.165
280 1 -79.8423 5.52351 -102.165
282 1 -76.6533 5.52351 -102.165
284 1 -73.4643 5.52351 -102.165
286 1 -70.2753 5.52351 -102.165
288 1 -67.0863 5.52351 -102.165
290 1 -63.8973 5.52351 -102.165
292 1 -60.7083 5.52351 -102.165
294 1 -57.5193 5.52351 -102.165
296 1 -54.3303 5.52351 -102.165
298 1 -51.1413 5.52351 -102.165
300 1 -47.9523 5.52351 -102.165
302 1 -44.7633 5.52351 -102.165
304 1 -41.5743 5.52351 -102.165
306 1 -38.3853 5.52351 -102.165
308 1 -35.1963 5.52351 -102.165
310 1 -32.0073 5.52351 -102.165
312 1 -28.8183 5.52351 -102.165
314 1 -25.6293 5.52351 -102.165
316 1 -22.4403 5.52351 -102.165
318 1 -19.2513 5.52351 -102.165
320 1 -16.0623 5.52351 -102.165
322 1 -12.8733 5.52351 -102.165
324 1 -9.68433 5.52351 -102.165
326 1 -6.49533 5.52351 -102.165
328 1 -3.30633 5.52351 -102.165
330 1 -0.117328 5.52351 -102.165
332 1 3.07167 5.52351 -102.165
334 1 6.26067 5.52351 -102.165
336 1 9.44967 5.52351 -102.165
338 1 12.6387 5.52351 -102.165
340 1 15.8277 5.52351 -102.165
342 1 19.0167 5.52351 -102.165
344 1 22.2057 5.52351 -102.165
346 1 25.3947 5.52351 -102.165
348 1 28.5837 5.52351 -102.165
350 1 31.7727 5.52351 -102.165
352 1 34.9617 5.52351 -102.165
354 1 38.1507 5.52351 -102.165
356 1 41.3397 5.52351 -102.165
358 1 44.5287 5.52351 -102.165
360 1 47.7177 5.52351 -102.165
362 1 50.9067 5.52351 -102.165
364 1 54.0957 5.52351 -102.165
366 1 57.2847 5.52351 -102.165
368 1 60.4737 5.52351 -102.165
370 1 63.6627 5.52351 -102.165
372 1 66.8517 5.52351 -102.165
374 1 70.0407 5.52351 -102.165
376 1 73.2297 5.52351 -102.165
378 1 76.4187 5.52351 -102.165
380 1 79.6077 5.52351 -102.165
382 1 82.7967 5.52351 -102.165
384 1 85.9857 5.52351 -102.165
386 1 89.1747 5.52351 -102.165
388 1 92.3637 5.52351 -102.165
390 1 95.5527 5.52351 -102.165
392 1 98.7417 5.52351 -102.165
394 1 101.931 5.52351 -102.165
396 1 105.12 5.52351 -102.165
398 1 108.309 5.52351 -102.165
400 1 -100.571 8.28527 -102.165
402 1 -97.3818 8.28527 -102.165
404 1 -94.1928 8.28527 -102.165
406 1 -91.0038 8.28527 -102.165
408 1 -87.8148 8.28527 -102.165
410 1 -84.6258 8.28527 -102.165
412 1 -81.4368 8.28527 -102.165
414 1 -78.2478 8.28527 -102.165
416 1 -75.0588 8.28527 -102.165
418 1 -71.8698 8.28527 -102.165
420 1 -68.6808 8.28527 -102.165
422 1 -65.4918 8.28527 -102.165
424 1 -62.3028 8.28527 -102.165
426 1 -59.1138 8.28527 -102.165
428 1 -55.9248 8.28527 -102.165
430 1 -52.7358 8.28527 -102.165
432 1 -49.5468 8.28527 -102.165
434 1 -46.3578 8.28527 -102.165
436 1 -43.1688 8.28527 -102.165
438 1 -39.9798 8.28527 -102.165
440 1 -36.7908 8.28527 -102.165
442 1 -33.6018 8.28527 -102.165
444 1 -30.4128 8.28527 -102.165
446 1 -27.2238 8.28527 -102.165
448 1 -24.0348 8.28527 -102.165
450 1 -20.8458 8.28527 -102.165
452 1 -17.6568 8.28527 -102.165
454 1 -14.4678 8.28527 -102.165
456 1 -11.2788 8.28527 -102.165
458 1 -8.08983 8.28527 -102.165
460 1 -4.90083 8.28527 -102.165
462 1 -1.71183 8.28527 -102.165
464 1 1.47717 8.28527 -102.165
466 1 4.66617 8.28527 -102.165
468 1 7.85517 8.28527 -102.165
470 1 11.0442 8.28527 -102.165
472 1 14.2332 8.28527 -102.165
474 1 17.4222 8.28527 -102.165
476 1 20.6112 8.28527 -102.165
478 1 23.8002 8.28527 -102.165
480 1 26.9892 8.28527 -102.165
482 1 30.1782 8.28527 -102.165
484 1 33.3672 8.28527 -102.165
486 1 36.5562 8.28527 -102.165
488 1 39.7452 8.28527 -102.165
490 1 42.9342 8.28527 -102.165
492 1 46.1232 8.28527 -102.165
494 1 49.3122 8.28527 -102.165
496 1 52.5012 8.28527 -102.165
498 1 55.6902 8.28527 -102.165
500 1 58.8792 8.28527 -102.165
502 1 62.0682 8.28527 -102.165
504 1 65.2572 8.28527 -102.165
506 1 68.4462 8.28527 -102.165
508 1 71.6352 8.28527 -102.165
510 1 74.8242 8.28527 -102.165
512 1 78.0132 8.28527 -102.165
514 1 81.2022 8.28527 -102.165
516 1 84.3912 8.28527 -102.165
518 1 87.5802 8.28527 -102.165
520 1 90.7692 8.28527 -102.165
522 1 93.9582 8.28527 -102.165
524 1 97.1472 8.28527 -102.165
526 1 100.336 8.28527 -102.165
528 1 103.525 8.28527 -102.165
530 1 106.714 8.28527 -102.165
531 1 -102.165 11.047 -102.165
533 1 -98.9763 11.047 -102.165
535 1 -95.7873 11.047 -102.165
537 1 -92.5983 11.047 -102.165
539 1 -89.4093 11.047 -102.165
541 1 -86.2203 11.047 -102.165
543 1 -83.0313 11.047 -102.165
545 1 -79.8423 11.047 -102.165
547 1 -76.6533 11.047 -102.165
549 1 -73.4643 11.047 -102.165
551 1 -70.2753 11.047 -102.165
553 1 -67.0863 11.047 -102.165
555 1 -63.8973 11.047 -102.165
557 1 -60.7083 11.047 -102.165
559 1 -57.5193 11.047 -102.165
561 1 -54.3303 11.047 -102.165
563 1 -51.1413 11.047 -102.165
565 1 -47.9523 11.047 -102.165
567 1 -44.7633 11.047 -102.165
569 1 -41.5743 11.047 -102.165
571 1 -38.3853 11.047 -102.165
573 1 -35.1963 11.047 -102.165
575 1 -32.0073 11.047 -102.165
577 1 -28.8183 11.047 -102.165
579 1 -25.6293 11.047 -102.165
581 1 -22.4403 11.047 -102.165
583 1 -19.2513 11.047 -102.165
585 1 -16.0623 11.047 -102.165
587 1 -12.8733 11.047 -102.165
589 1 -9.68433 11.047 -102.165
591 1 -6.49533 11.047 -102.165
593 1 -3.30633 11.047 -102.165
595 1 -0.117328 11.047 -102.165
597 1 3.07167 11.047 -102.165
599 1 6.26067 11.047 -102.165
601 1 9.44967 11.047 -102.165
603 1 12.6387 11.047 -102.165
605 1 15.8277 11.047 -102.165
607 1 19.0167 11.047 -102.165
609 1 22.2057 11.047 -102.165
611 1 25.3947 11.047 -102.165
613 1 28.5837 11.047 -102.165
615 1 31.7727 11.047 -102.165
617 1 34.9617 11.047 -102.165
619 1 38.1507 11.047 -102.165
621 1 41.3397 11.047 -102.165
623 1 44.5287 11.047 -102.165
625 1 47.7177 11.047 -102.165
627 1 50.9067 11.047 -102.165
629 1 54.0957 11.047 -102.165
631 1 57.2847 11.047 -102.165
633 1 60.4737 11.047 -102.165
635 1 63.6627 11.047 -102.165
637 1 66.8517 11.047 -102.165
639 1 70.0407 11.047 -102.165
641 1 73.2297 11.047 -102.165
643 1 76.4187 11.047 -102.165
645 1 79.6077 11.047 -102.165
647 1 82.7967 11.047 -102.165
649 1 85.9857 11.047 -102.165
651 1 89.1747 11.047 -102.165
653 1 92.3637 11.047 -102.165
655 1 95.5527 11.047 -102.165
657 1 98.7417 11.047 -102.165
659 1 101.931 11.047 -102.165
661 1 105.12 11.047 -102.165
663 1 108.309 11.047 -102.165
665 1 -100.571 13.8088 -102.165
667 1 -97.3818 13.8088 -102.165
669 1 -94.1928 13.8088 -102.165
671 1 -91.0038 13.8088 -102.165
673 1 -87.8148 13.8088 -102.165
675 1 -84.6258 13.8088 -102.165
677 1 -81.4368 13.8088 -102.165
679 1 -78.2478 13.8088 -102.165
681 1 -75.0588 13.8088 -102.165
683 1 -71.8698 13.8088 -102.165
685 1 -68.6808 13.8088 -102.165
687 1 -65.4918 13.8088 -102.165
689 1 -62.3028 13.8088 -102.165
691 1 -59.1138 13.8088 -102.165
693 1 -55.9248 13.8088 -102.165
695 1 -52.7358 13.8088 -102.165
697 1 -49.5468 13.8088 -102.165
699 1 -46.3578 13.8088 -102.165
701 1 -43.1688 13.8088 -102.165
703 1 -39.9798 13.8088 -102.165
705 1 -36.7908 13.8088 -102.165
707 1 -33.6018 13.8088 -102.165
709 1 -30.4128 13.8088 -102.165
711 1 -27.2238 13.8088 -102.165
713 1 -24.0348 13.8088 -102.165
715 1 -20.8458 13.8088 -102.165
717 1 -17.6568 13.8088 -102.165
719 1 -14.4678 13.8088 -102.165
721 1 -11.2788 13.8088 -102.165
723 1 -8.08983 13.8088 -102.165
725 1 -4.90083 13.8088 -102.165
727 1 -1.71183 13.8088 -102.165
729 1 1.47717 13.8088 -102.165
731 1 4.66617 13.8088 -102.165
733 1 7.85517 13.8088 -102.165
735 1 11.0442 13.8088 -102.165
737 1 14.2332 13.8088 -102.165
739 1 17.4222 13.8088 -102.165
741 1 20.6112 13.8088 -102.165
743 1 23.8002 13.8088 -102.165
745 1 26.9892 13.8088 -102.165
747 1 30.1782 13.8088 -102.165
749 1 33.3672 13.8088 -102.165
751 1 36.5562 13.8088 -102.165
753 1 39.7452 13.8088 -102.165
755 1 42.9342 13.8088 -102.165
757 1 46.1232 13.8088 -102.165
759 1 49.3122 13.8088 -102.165
761 1 52.5012 13.8088 -102.165
763 1 55.6902 13.8088 -102.165
765 1 58.8792 13.8088 -102.165
767 1 62.0682 13.8088 -102.165
769 1 65.2572 13.8088 -102.165
771 1 68.4462 13.8088 -102.165
773 1 71.6352 13.8088 -102.165
775 1 74.8242 13.8088 -102.165
777 1 78.0132 13.8088 -102.165
779 1 81.2022 13.8088 -102.165
781 1 84.3912 13.8088 -102.165
783 1 87.5802 13.8088 -102.165
785 1 90.7692 13.8088 -102.165
787 1 93.9582 13.8088 -102.165
789 1 97.1472 13.8088 -102.165
791 1 100.336 13.8088 -102.165
793 1 103.525 13.8088 -102.165
795 1 106.714 13.8088 -102.165
796 1 -102.165 16.5705 -102.165
798 1 -98.9763 16.5705 -102.165
800 1 -95.7873 16.5705 -102.165
802 1 -92.5983 16.5705 -102.165
804 1 -89.4093 16.5705 -102.165
806 1 -86.2203 16.5705 -102.165
808 1 -83.0313 16.5705 -102.165
810 1 -79.8423 16.5705 -102.165
812 1 -76.6533 16.5705 -102.165
814 1 -73.4643 16.5705 -102.165
816 1 -70.2753 16.5705 -102.165
818 1 -67.0863 16.5705 -102.165
820 1 -63.8973 16.5705 -102.165
822 1 -60.7083 16.5705 -102.165
824 1 -57.5193 16.5705 -102.165
826 1 -54.3303 16.5705 -102.165
828 1 -51.1413 16.5705 -102.165
830 1 -47.9523 16.5705 -102.165
832 1 -44.7633 16.5705 -102.165
834 1 -41.5743 16.5705 -102.165
836 1 -38.3853 16.5705 -102.165
838 1 -35.1963 16.5705 -102.165
840 1 -32.0073 16.5705 -102.165
842 1 -28.8183 16.5705 -102.165
844 1 -25.6293 16.5705 -102.165
846 1 -22.4403 16.5705 -102.165
848 1 -19.2513 16.5705 -102.165
850 1 -16.0623 16.5705 -102.165
852 1 -12.8733 16.5705 -102.165
854 1 -9.68433 16.5705 -102.165
856 1 -6.49533 16.5705 -102.165
858 1 -3.30633 16.5705 -102.165
860 1 -0.117328 16.5705 -102.165
862 1 3.07167 16.5705 -102.165
864 1 6.26067 16.5705 -102.165
866 1 9.44967 16.5705 -102.165
868 1 12.6387 16.5705 -102.165
870 1 15.8277 16.5705 -102.165
872 1 19.0167 16.5705 -102.165
874 1 22.2057 16.5705 -102.165
876 1 25.3947 16.5705 -102.165
878 1 28.5837 16.5705 -102.165
880 1 31.7727 16.5705 -102.165
882 1 34.9617 16.5705 -102.165
884 1 38.1507 16.5705 -102.165
886 1 41.3397 16.5705 -102.165
888 1 44.5287 16.5705 -102.165
890 1 47.7177 16.5705 -102.165
892 1 50.9067 16.5705 -102.165
894 1 54.0957 16.5705 -102.165
896 1 57.2847 16.5705 -102.165
898 1 60.4737 16.5705 -102.165
900 1 63.6627 16.5705 -102.165
902 1 66.8517 16.5705 -102.165
904 1 70.0407 16.5705 -102.165
906 1 73.2297 16.5705 -102.165
908 1 76.4187 16.5705 -102.165
910 1 79.6077 16.5705 -102.165
912 1 82.7967 16.5705 -102.165
914 1 85.9857 16.5705 -102.165
916 1 89.1747 16.5705 -102.165
918 1 92.3637 16.5705 -102.165
920 1 95.5527 16.5705 -102.165
922 1 98.7417 16.5705 -102.165
924 1 101.931 16.5705 -102.165
926 1 105.12 16.5705 -102.165
928 1 108.309 16.5705 -102.165
930 1 -100.571 19.3323 -102.165
932 1 -97.3818 19.3323 -102.165
934 1 -94.1928 19.3323 -102.165
936 1 -91.0038 19.3323 -102.165
938 1 -87.8148 19.3323 -102.165
940 1 -84.6258 19.3323 -102.165
942 1 -81.4368 19.3323 -102.165
944 1 -78.2478 19.3323 -102.165
946 1 -75.0588 19.3323 -102.165
948 1 -71.8698 19.3323 -102.165
950 1 -68.6808 19.3323 -102.165
952 1 -65.4918 19.3323 -102.165
954 1 -62.3028 19.3323 -102.165
956 1 -59.1138 19.3323 -102.165
958 1 -55.9248 19.3323 -102.165
960 1 -52.7358 19.3323 -102.165
962 1 -49.5468 19.3323 -102.165
964 1 -46.3578 19.3323 -102.165
966 1 -43.1688 19.3323 -102.165
968 1 -39.9798 19.3323 -102.165
970 1 -36.7908 19.3323 -102.165
972 1 -33.6018 19.3323 -102.165
974 1 -30.4128 19.3323 -102.165
976 1 -27.2238 19.3323 -102.165
978 1 -24.0348 19.3323 -102.165
980 1 -20.8458 19.3323 -102.165
982 1 -17.6568 19.3323 -102.165
984 1 -14.4678 19.3323 -102.165
986 1 -11.2788 19.3323 -102.165
988 1 -8.08983 19.3323 -102.165
990 1 -4.90083 19.3323 -102.165
992 1 -1.71183 19.3323 -102.165
994 1 1.47717 19.3323 -102.165
996 1 4.66617 19.3323 -102.165
998 1 7.85517 19.3323 -102.165
1000 1 11.0442 19.3323 -102.165
1002 1 14.2332 19.3323 -102.165
1004 1 17.4222 19.3323 -102.165
1006 1 20.6112 19.3323 -102.165
1008 1 23.8002 19.3323 -102.165
1010 1 26.9892 19.3323 -102.165
1012 1 30.1782 19.3323 -102.165
1014 1 33.3672 19.3323 -102.165
1016 1 36.5562 19.3323 -102.165
1018 1 39.7452 19.3323 -102.165
1020 1 42.9342 19.3323 -102.165
1022 1 46.1232 19.3323 -102.165
1024 1 49.3122 19.3323 -102.165
1026 1 52.5012 19.3323 -102.165
1028 1 55.6902 19.3323 -102.165
1030 1 58.8792 19.3323 -102.165
1032 1 62.0682 19.3323 -102.165
1034 1 65.2572 19.3323 -102.165
1036 1 68.4462 19.3323 -102.165
1038 1 71.6352 19.3323 -102.165
1040 1 74.8242 19.3323 -102.165
1042 1 78.0132 19.3323 -102.165
1044 1 81.2022 19.3323 -102.165
1046 1 84.3912 19.3323 -102.165
1048 1 87.5802 19.3323 -102.165
1050 1 90.7692 19.3323 -102.165
1052 1 93.9582 19.3323 -102.165
1054 1 97.1472 19.3323 -102.165
1056 1 100.336 19.3323 -102.165
1058 1 103.525 19.3323 -102.165
1060 1 106.714 19.3323 -102.165
1061 1 -102.165 22.094 -102.165
1063 1 -98.9763 22.094 -102.165
1065 1 -95.7873 22.094 -102.165
1067 1 -92.5983 22.094 -102.165
1069 1 -89.4093 22.094 -102.165
1071 1 -86.2203 22.094 -102.165
1073 1 -83.0313 22.094 -102.165
1075 1 -79.8423 22.094 -102.165
1077 1 -76.6533 22.094 -102.165
1079 1 -73.4643 22.094 -102.165
1081 1 -70.2753 22.094 -102.165
1083 1 -67.0863 22.094 -102.165
1085 1 -63.8973 22.094 -102.165
1087 1 -60.7083 22.094 -102.165
1089 1 -57.5193 22.094 -102.165
1091 1 -54.3303 22.094 -102.165
1093 1 -51.1413 22.094 -102.165
1095 1 -47.9523 22.094 -102.165
1097 1 -44.7633 22.094 -102.165
1099 1 -41.5743 22.094 -102.165
1101 1 -38.3853 22.094 -102.165
1103 1 -35.1963 22.094 -102.165
1105 1 -32.0073 22.094 -102.165
1107 1 -28.8183 22.094 -102.165
1109 1 -25.6293 22.094 -102.165
1111 1 -22.4403 22.094 -102.165
1113 1 -19.2513 22.094 -102.165
1115 1 -16.0623 22.094 -102.165
1117 1 -12.8733 22.094 -102.165
1119 1 -9.68433 22.094 -102.165
1121 1 -6.49533 22.094 -102.165
1123 1 -3.30633 22.094 -102.165
1125 1 -0.117328 22.094 -102.165
1127 1 3.07167 22.094 -102.165
1129 1 6.26067 22.094 -102.165
1131 1 9.44967 22.094 -102.165
1133 1 12.6387 22.094 -102.165
1135 1 15.8277 22.094 -102.165
1137 1 19.0167 22.094 -102.165
1139 1 22.2057 22.094 -102.165
1141 1 25.3947 22.094 -102.165
1143 1 28.5837 22.094 -102.165
1145 1 31.7727 22.094 -102.165
1147 1 34.9617 22.094 -102.165
1149 1 38.1507 22.094 -102.165
1151 1 41.3397 22.094 -102.165
1153 1 44.5287 22.094 -102.165
1155 1 47.7177 22.094 -102.165
1157 1 50.9067 22.094 -102.165
1159 1 54.0957 22.094 -102.165
1161 1 57.2847 22.094 -102.165
1163 1 60.4737 22.094 -102.165
1165 1 63.6627 22.094 -102.165
1167 1 66.8517 22.094 -102.165
1169 1 70.0407 22.094 -102.165
1171 1 73.2297 22.094 -102.165
1173 1 76.4187 22.094 -102.165
1175 1 79.6077 22.094 -102.165
1177 1 82.7967 22.094 -102.165
1179 1 85.9857 22.094 -102.165
1181 1 89.1747 22.094 -102.165
1183 1 92.3637 22.094 -102.165
1185 1 95.5527 22.094 -102.165
1187 1 98.7417 22.094 -102.165
1189 1 101.931 22.094 -102.165
1191 1 105.12 22.094 -102.165
1193 1 108.309 22.094 -102.165
1195 1 -100.571 24.8558 -102.165
1197 1 -97.3818 24.8558 -102.165
1199 1 -94.1928 24.8558 -102.165
1201 1 -91.0038 24.8558 -102.165
1203 1 -87.8148 24.8558 -102.165
1205 1 -84.6258 24.8558 -102.165
1207 1 -81.4368 24.8558 -102.165
1209 1 -78.2478 24.8558 -102.165
1211 1 -75.0588 24.8558 -102.165
1213 1 -71.8698 24.8558 -102.165
1215 1 -68.6808 24.8558 -102.165
1217 1 -65.4918 24.8558 -102.165
1219 1 -62.3028 24.8558 -102.165
1221 1 -59.1138 24.8558 -102.165
1223 1 -55.9248 24.8558 -102.165
1225 1 -52.7358 24.8558 -102.165
1227 1 -49.5468 24.8558 -102.165
1229 1 -46.3578 24.8558 -102.165
1231 1 -43.1688 24.8558 -102.165
1233 1 -39.9798 24.8558 -102.165
1235 1 -36.7908 24.8558 -102.165
1237 1 -33.6018 24.8558 -102.165
1239 1 -30.4128 24.8558 -102.165
1241 1 -27.2238 24.8558 -102.165
1243 1 -24.0348 24.8558 -102.165
1245 1 -20.8458 24.8558 -102.165
1247 1 -17.6568 24.8558 -102.165
1249 1 -14.4678 24.8558 -102.165
1251 1 -11.2788 24.8558 -102.165
1253 1 -8.08983 24.8558 -102.165
1255 1 -4.90083 24.8558 -102.165
1257 1 -1.71183 24.8558 -102.165
1259 1 1.47717 24.8558 -102.165
1261 1 4.66617 24.8558 -102.165
1263 1 7.85517 24.8558 -102.165
1265 1 11.0442 24.8558 -102.165
1267 1 14.2332 24.8558 -102.165
1269 1 17.4222 24.8558 -102.165
1271 1 20.6112 24.8558 -102.165
1273 1 23.8002 24.8558 -102.165
1275 1 26.9892 24.8558 -102.165
1277 1 30.1782 24.8558 -102.165
1279 1 33.3672 24.8558 -102.165
1281 1 36.5562 24.8558 -102.165
1283 1 39.7452 24.8558 -102.165
1285 1 42.9342 24.8558 -102.165
1287 1 46.1232 24.8558 -102.165
1289 1 49.3122 24.8558 -102.165
1291 1 52.5012 24.8558 -102.165
1293 1 55.6902 24.8558 -102.165
1295 1 58.8792 24.8558 -102.165
1297 1 62.0682 24.8558 -102.165
1299 1 65.2572 24.8558 -102.165
1301 1 68.4462 24.8558 -102.165
1303 1 71.6352 24.8558 -102.165
1305 1 74.8242 24.8558 -102.165
1307 1 78.0132 24.8558 -102.165
1309 1 81.2022 24.8558 -102.165
1311 1 84.3912 24.8558 -102.165
1313 1 87.5802 24.8558 -102.165
1315 1 90.7692 24.8558 -102.165
1317 1 93.9582 24.8558 -102.165
1319 1 97.1472 24.8558 -102.165
1321 1 100.336 24.8558 -102.165
1323 1 103.525 24.8558 -102.165
1325 1 106.714 24.8558 -102.165
1326 1 -102.165 27.6176 -102.165
1328 1 -98.9763 27.6176 -102.165
1330 1 -95.7873 27.6176 -102.165
1332 1 -92.5983 27.6176 -102.165
1334 1 -89.4093 27.6176 -102.165
1336 1 -86.2203 27.6176 -102.165
1338 1 -83.0313 27.6176 -102.165
1340 1 -79.8423 27.6176 -102.165
1342 1 -76.6533 27.6176 -102.165
1344 1 -73.4643 27.6176 -102.165
1346 1 -70.2753 27.6176 -102.165
1348 1 -67.0863 27.6176 -102.165
1350 1 -63.8973 27.6176 -102.165
1352 1 -60.7083 27.6176 -102.165
1354 1 -57.5193 27.6176 -102.165
1356 1 -54.3303 27.6176 -102.165
1358 1 -51.1413 27.6176 -102.165
1360 1 -47.9523 27.6176 -102.165
1362 1 -44.7633 27.6176 -102.165
1364 1 -41.5743 27.6176 -102.165
1366 1 -38.3853 27.6176 -102.165
1368 1 -35.1963 27.6176 -102.165
1370 1 -32.0073 27.6176 -102.165
1372 1 -28.8183 27.6176 -102.165
1374 1 -25.6293 27.6176 -102.165
1376 1 -22.4403 27.6176 -102.165
1378 1 -19.2513 27.6176 -102.165
1380 1 -16.0623 27.6176 -102.165
1382 1 -12.8733 27.6176 -102.165
1384 1 -9.68433 27.6176 -102.165
1386 1 -6.49533 27.6176 -102.165
1388 1 -3.30633 27.6176 -102.165
1390 1 -0.117328 27.6176 -102.165
1392 1 3.07167 27.6176 -102.165
1394 1 6.26067 27.6176 -102.165
1396 1 9.44967 27.6176 -102.165
1398 1 12.6387 27.6176 -102.165
1400 1 15.8277 27.6176 -102.165
1402 1 19.0167 27.6176 -102.165
1404 1 22.2057 27.6176 -102.165
1406 1 25.3947 27.6176 -102.165
1408 1 28.5837 27.6176 -102.165
1410 1 31.7727 27.6176 -102.165
1412 1 34.9617 27.6176 -102.165
1414 1 38.1507 27.6176 -102.165
1416 1 41.3397 27.6176 -102.165
1418 1 44.5287 27.6176 -102.165
1420 1 47.7177 27.6176 -102.165
1422 1 50.9067 27.6176 -102.165
1424 1 54.0957 27.6176 -102.165
1426 1 57.2847 27.6176 -102.165
1428 1 60.4737 27.6176 -102.165
1430 1 63.6627 27.6176 -102.165
1432 1 66.8517 27.6176 -102.165
1434 1 70.0407 27.6176 -102.165
1436 1 73.2297 27.6176 -102.165
1438 1 76.4187 27.6176 -102.165
1440 1 79.6077 27.6176 -102.165
1442 1 82.7967 27.6176 -102.165
1444 1 85.9857 27.6176 -102.165
1446 1 89.1747 27.6176 -102.165
1448 1 92.3637 27.6176 -102.165
1450 1 95.5527 27.6176 -102.165
1452 1 98.7417 27.6176 -102.165
1454 1 101.931 27.6176 -102.165
1456 1 105.12 27.6176 -102.165
1458 1 108.309 27.6176 -102.165
1460 1 -100.571 30.3793 -102.165
1462 1 -97.3818 30.3793 -102.165
1464 1 -94.1928 30.3793 -102.165
1466 1 -91.0038 30.3793 -102.165
1468 1 -87.8148 30.3793 -102.165
1470 1 -84.6258 30.3793 -102.165
1472 1 -81.4368 30.3793 -102.165
1474 1 -78.2478 30.3793 -102.165
1476 1 -75.0588 30.3793 -102.165
1478 1 -71.8698 30.3793 -102.165
1480 1 -68.6808 30.3793 -102.165
1482 1 -65.4918 30.3793 -102.165
1484 1 -62.3028 30.3793 -102.165
1486 1 -59.1138 30.3793 -102.165
1488 1 -55.9248 30.3793 -102.165
1490 1 -52.7358 30.3793 -102.165
1492 1 -49.5468 30.3793 -102.165
1494 1 -46.3578 30.3793 -102.165
1496 1 -43.1688 30.3793 -102.165
1498 1 -39.9798 30.3793 -102.165
1500 1 -36.7908 30.3793 -102.165
1502 1 -33.6018 30.3793 -102.165
1504 1 -30.4128 30.3793 -102.165
1506 1 -27.2238 30.3793 -102.165
1508 1 -24.0348 30.3793 -102.165
1510 1 -20.8458 30.3793 -102.165
1512 1 -17.6568 30.3793 -102.165
1514 1 -14.4678 30.3793 -102.165
1516 1 -11.2788 30.3793 -102.165
1518 1 -8.08983 30.3793 -102.165
1520 1 -4.90083 30.3793 -102.165
1522 1 -1.71183 30.3793 -102.165
1524 1 1.47717 30.3793 -102.165
1526 1 4.66617 30.3793 -102.165
1528 1 7.85517 30.3793 -102.165
1530 1 11.0442 30.3793 -102.165
1532 1 14.2332 30.3793 -102.165
1534 1 17.4222 30.3793 -102.165
1536 1 20.6112 30.3793 -102.165
1538 1 23.8002 30.3793 -102.165
1540 1 26.9892 30.3793 -102.165
1542 1 30.1782 30.3793 -102.165
1544 1 33.3672 30.3793 -102.165
1546 1 36.5562 30.3793 -102.165
1548 1 39.7452 30.3793 -102.165
1550 1 42.9342 30.3793 -102.165
1552 1 46.1232 30.3793 -102.165
1554 1 49.3122 30.3793 -102.165
1556 1 52.5012 30.3793 -102.165
1558 1 55.6902 30.3793 -102.165
1560 1 58.8792 30.3793 -102.165
1562 1 62.0682 30.3793 -102.165
1564 1 65.2572 30.3793 -102.165
1566 1 68.4462 30.3793 -102.165
1568 1 71.6352 30.3793 -102.165
1570 1 74.8242 30.3793 -102.165
1572 1 78.0132 30.3793 -102.165
1574 1 81.2022 30.3793 -102.165
1576 1 84.3912 30.3793 -102.165
1578 1 87.5802 30.3793 -102.165
1580 1 90.7692 30.3793 -102.165
1582 1 93.9582 30.3793 -102.165
1584 1 97.1472 30.3793 -102.165
1586 1 100.336 30.3793 -102.165
1588 1 103.525 30.3793 -102.165
1590 1 106.714 30.3793 -102.165
1591 1 -102.165 33.1411 -102.165
1592 1 -98.9763 33.1411 -102.165
1593 1 -95.7873 33.1411 -102.165
1594 1 -92.5983 33.1411 -102.165
1595 1 -89.4093 33.1411 -102.165
1596 1 -86.2203 33.1411 -102.165
1597 1 -83.0313 33.1411 -102.165
1598 1 -79.8423 33.1411 -102.165
1599 1 -76.6533 33.1411 -102.165
1600 1 -73.4643 33.1411 -102.165
1601 1 -70.2753 33.1411 -102.165
1602 1 -67.0863 33.1411 -102.165
1603 1 -63.8973 33.1411 -102.165
1604 1 -60.7083 33.1411 -102.165
1605 1 -57.5193 33.1411 -102.165
1606 1 -54.3303 33.1411 -102.165
1607 1 -51.1413 33.1411 -102.165
1608 1 -47.9523 33.1411 -102.165
1609 1 -44.7633 33.1411 -102.165
1610 1 -41.5743 33.1411 -102.165
1611 1 -38.3853 33.1411 -102.165
1612 1 -35.1963 33.1411 -102.165
1613 1 -32.0073 33.1411 -102.165
1614 1 -28.8183 33.1411 -102.165
1615 1 -25.6293 33.1411 -102.165
1616 1 -22.4403 33.1411 -102.165
1617 1 -19.2513 33.1411 -102.165
1618 1 -16.0623 33.1411 -102.165
1619 1 -12.8733 33.1411 -102.165
1620 1 -9.68433 33.1411 -102.165
1621 1 -6.49533 33.1411 -102.165
1622 1 -3.30633 33.1411 -102.165
1623 1 -0.117328 33.1411 -102.165
1624 1 3.07167 33.1411 -102.165
1625 1 6.26067 33.1411 -102.165
1626 1 9.44967 33.1411 -102.165
1627 1 12.6387 33.1411 -102.165
1628 1 15.8277 33.1411 -102.165
1629 1 19.0167 33.1411 -102.165
1630 1 22.2057 33.1411 -102.165
1631 1 25.3947 33.1411 -102.165
1632 1 28.5837 33.1411 -102.165
1633 1 31.7727 33.1411 -102.165
1634 1 34.9617 33.1411 -102.165
1635 1 38.1507 33.1411 -102.165
1636 1 41.3397 33.1411 -102.165
1637 1 44.5287 33.1411 -102.165
1638 1 47.7177 33.1411 -102.165
1639 1 50.9067 33.1411 -102.165
1640 1 54.0957 33.1411 -102.165
1641 1 57.2847 33.1411 -102.165
1642 1 60.4737 33.1411 -102.165
1643 1 63.6627 33.1411 -102.165
1644 1 66.8517 33.1411 -102.165
1645 1 70.0407 33.1411 -102.165
1646 1 73.2297 33.1411 -102.165
1647 1 76.4187 33.1411 -102.165
1648 1 79.6077 33.1411 -102.165
1649 1 82.7967 33.1411 -102.165
1650 1 85.9857 33.1411 -102.165
1651 1 89.1747 33.1411 -102.165
1652 1 92.3637 33.1411 -102.165
1653 1 95.5527 33.1411 -102.165
1654 1 98.7417 33.1411 -102.165
1655 1 101.931 33.1411 -102.165
1656 1 105.12 33.1411 -102.165
1657 1 108.309 33.1411 -102.165
2 1 -100.603 1.01668 -93.8807
4 1 -97.4138 1.01668 -93.8807
6 1 -94.2248 1.01668 -93.8807
8 1 -91.0358 1.01668 -93.8807
10 1 -87.8468 1.01668 -93.8807
12 1 -84.6578 1.01668 -93.8807
14 1 -81.4688 1.01668 -93.8807
16 1 -78.2798 1.01668 -93.8807
18 1 -75.0908 1.01668 -93.8807
20 1 -71.9018 1.01668 -93.8807
22 1 -68.7128 1.01668 -93.8807
24 1 -65.5238 1.01668 -93.8807
26 1 -62.3348 1.01668 -93.8807
28 1 -59.1458 1.01668 -93.8807
30 1 -55.9568 1.01668 -93.8807
32 1 -52.7678 1.01668 -93.8807
34 1 -49.5788 1.01668 -93.8807
36 1 -46.3898 1.01668 -93.8807
38 1 -43.2008 1.01668 -93.8807
40 1 -40.0118 1.01668 -93.8807
42 1 -36.8228 1.01668 -93.8807
44 1 -33.6338 1.01668 -93.8807
46 1 -30.4448 1.01668 -93.8807
48 1 -27.2558 1.01668 -93.8807
50 1 -24.0668 1.01668 -93.8807
52 1 -20.8778 1.01668 -93.8807
54 1 -17.6888 1.01668 -93.8807
56 1 -14.4998 1.01668 -93.8807
58 1 -11.3108 1.01668 -93.8807
60 1 -8.12182 1.01668 -93.8807
62 1 -4.93282 1.01668 -93.8807
64 1 -1.74382 1.01668 -93.8807
66 1 1.44518 1.01668 -93.8807
68 1 4.63418 1.01668 -93.8807
70 1 7.82318 1.01668 -93.8807
72 1 11.0122 1.01668 -93.8807
74 1 14.2012 1.01668 -93.8807
76 1 17.3902 1.01668 -93.8807
78 1 20.5792 1.01668 -93.8807
80 1 23.7682 1.01668 -93.8807
82 1 26.9572 1.01668 -93.8807
84 1 30.1462 1.01668 -93.8807
86 1 33.3352 1.01668 -93.8807
88 1 36.5242 1.01668 -93.8807
90 1 39.7132 1.01668 -93.8807
92 1 42.9022 1.01668 -93.8807
94 1 46.0912 1.01668 -93.8807
96 1 49.2802 1.01668 -93.8807
98 1 52.4692 1.01668 -93.8807
100 1 55.6582 1.01668 -93.8807
102 1 58.8472 1.01668 -93.8807
104 1 62.0362 1.01668 -93.8807
106 1 65.2252 1.01668 -93.8807
108 1 68.4142 1.01668 -93.8807
110 1 71.6032 1.01668 -93.8807
112 1 74.7922 1.01668 -93.8807
114 1 77.9812 1.01668 -93.8807
116 1 81.1702 1.01668 -93.8807
118 1 84.3592 1.01668 -93.8807
120 1 87.5482 1.01668 -93.8807
122 1 90.7372 1.01668 -93.8807
124 1 93.9262 1.01668 -93.8807
126 1 97.1152 1.01668 -93.8807
128 1 100.304 1.01668 -93.8807
130 1 103.493 1.01668 -93.8807
132 1 106.682 1.01668 -93.8807
134 1 -102.165 3.68225 -93.8978
136 1 -99.0083 3.77843 -93.8807
138 1 -95.8193 3.77843 -93.8807
140 1 -92.6303 3.77843 -93.8807
142 1 -89.4413 3.77843 -93.8807
144 1 -86.2523 3.77843 -93.8807
146 1 -83.0633 3.77843 -93.8807
148 1 -79.8743 3.77843 -93.8807
150 1 -76.6853 3.77843 -93.8807
152 1 -73.4963 3.77843 -93.8807
154 1 -70.3073 3.77843 -93.8807
156 1 -67.1183 3.77843 -93.8807
158 1 -63.9293 3.77843 -93.8807
160 1 -60.7403 3.77843 -93.8807
162 1 -57.5513 3.77843 -93.8807
164 1 -54.3623 3.77843 -93.8807
166 1 -51.1733 3.77843 -93.8807
168 1 -47.9843 3.77843 -93.8807
170 1 -44.7953 3.77843 -93.8807
172 1 -41.6063 3.77843 -93.8807
174 1 -38.4173 3.77843 -93.8807
176 1 -35.2283 3.77843 -93.8807