ITEM: TIMESTEP
18000
ITEM: NUMBER OF ATOMS
14121
ITEM: BOX BOUNDS ss ss ss
-7.6550601295132594e+01 5.9143813669056124e+02
-1.0231754111503553e+00 5.2744942442638752e+01
-7.6536164994449791e+01 4.4493725518760778e+02
ITEM: ATOMS id type x y z
1 1 -76.5616 0 -76.5616
3 1 -73.3726 0 -76.5616
5 1 -70.1836 0 -76.5616
7 1 -66.9946 0 -76.5616
9 1 -63.8056 0 -76.5616
11 1 -60.6166 0 -76.5616
13 1 -57.4276 0 -76.5616
15 1 -54.2386 0 -76.5616
17 1 -51.0496 0 -76.5616
19 1 -47.8606 0 -76.5616
21 1 -44.6716 0 -76.5616
23 1 -41.4826 0 -76.5616
25 1 -38.2936 0 -76.5616
27 1 -35.1046 0 -76.5616
29 1 -31.9156 0 -76.5616
31 1 -28.7266 0 -76.5616
33 1 -25.5376 0 -76.5616
35 1 -22.3486 0 -76.5616
37 1 -19.1596 0 -76.5616
39 1 -15.9706 0 -76.5616
41 1 -12.7816 0 -76.5616
43 1 -9.59255 0 -76.5616
45 1 -6.40355 0 -76.5616
47 1 -3.21455 0 -76.5616
49 1 -0.0255544 0 -76.5616
51 1 3.16345 0 -76.5616
53 1 6.35245 0 -76.5616
55 1 9.54145 0 -76.5616
57 1 12.7304 0 -76.5616
59 1 15.9194 0 -76.5616
61 1 19.1084 0 -76.5616
63 1 22.2974 0 -76.5616
65 1 25.4864 0 -76.5616
67 1 28.6754 0 -76.5616
69 1 31.8644 0 -76.5616
71 1 35.0534 0 -76.5616
73 1 38.2424 0 -76.5616
75 1 41.4314 0 -76.5616
77 1 44.6204 0 -76.5616
79 1 47.8094 0 -76.5616
81 1 50.9984 0 -76.5616
83 1 54.1874 0 -76.5616
85 1 57.3764 0 -76.5616
87 1 60.5654 0 -76.5616
89 1 63.7544 0 -76.5616
91 1 66.9434 0 -76.5616
93 1 70.1324 0 -76.5616
95 1 73.3214 0 -76.5616
97 1 76.5104 0 -76.5616
99 1 79.6994 0 -76.5616
101 1 82.8884 0 -76.5616
103 1 86.0774 0 -76.5616
105 1 89.2664 0 -76.5616
107 1 92.4554 0 -76.5616
109 1 95.6444 0 -76.5616
111 1 98.8334 0 -76.5616
113 1 102.022 0 -76.5616
115 1 105.211 0 -76.5616
117 1 108.4 0 -76.5616
119 1 111.589 0 -76.5616
121 1 114.778 0 -76.5616
123 1 117.967 0 -76.5616
125 1 121.156 0 -76.5616
127 1 124.345 0 -76.5616
129 1 127.534 0 -76.5616
131 1 130.723 0 -76.5616
133 1 133.912 0 -76.5616
135 1 -74.9671 2.76176 -76.5616
137 1 -71.7781 2.76176 -76.5616
139 1 -68.5891 2.76176 -76.5616
141 1 -65.4001 2.76176 -76.5616
143 1 -62.2111 2.76176 -76.5616
145 1 -59.0221 2.76176 -76.5616
147 1 -55.8331 2.76176 -76.5616
149 1 -52.6441 2.76176 -76.5616
151 1 -49.4551 2.76176 -76.5616
153 1 -46.2661 2.76176 -76.5616
155 1 -43.0771 2.76176 -76.5616
157 1 -39.8881 2.76176 -76.5616
159 1 -36.6991 2.76176 -76.5616
161 1 -33.5101 2.76176 -76.5616
163 1 -30.3211 2.76176 -76.5616
165 1 -27.1321 2.76176 -76.5616
167 1 -23.9431 2.76176 -76.5616
169 1 -20.7541 2.76176 -76.5616
171 1 -17.5651 2.76176 -76.5616
173 1 -14.3761 2.76176 -76.5616
175 1 -11.1871 2.76176 -76.5616
177 1 -7.99805 2.76176 -76.5616
179 1 -4.80905 2.76176 -76.5616
181 1 -1.62005 2.76176 -76.5616
183 1 1.56895 2.76176 -76.5616
185 1 4.75795 2.76176 -76.5616
187 1 7.94695 2.76176 -76.5616
189 1 11.1359 2.76176 -76.5616
191 1 14.3249 2.76176 -76.5616
193 1 17.5139 2.76176 -76.5616
195 1 20.7029 2.76176 -76.5616
197 1 23.8919 2.76176 -76.5616
199 1 27.0809 2.76176 -76.5616
201 1 30.2699 2.76176 -76.5616
203 1 33.4589 2.76176 -76.5616
205 1 36.6479 2.76176 -76.5616
207 1 39.8369 2.76176 -76.5616
209 1 43.0259 2.76176 -76.5616
211 1 46.2149 2.76176 -76.5616
213 1 49.4039 2.76176 -76.5616
215 1 52.5929 2.76176 -76.5616
217 1 55.7819 2.76176 -76.5616
219 1 58.9709 2.76176 -76.5616
221 1 62.1599 2.76176 -76.5616
223 1 65.3489 2.76176 -76.5616
225 1 68.5379 2.76176 -76.5616
227 1 71.7269 2.76176 -76.5616
229 1 74.9159 2.76176 -76.5616
231 1 78.1049 2.76176 -76.5616
233 1 81.2939 2.76176 -76.5616
235 1 84.4829 2.76176 -76.5616
237 1 87.6719 2.76176 -76.5616
239 1 90.8609 2.76176 -76.5616
241 1 94.0499 2.76176 -76.5616
243 1 97.2389 2.76176 -76.5616
245 1 100.428 2.76176 -76.5616
247 1 103.617 2.76176 -76.5616
249 1 106.806 2.76176 -76.5616
251 1 109.995 2.76176 -76.5616
253 1 113.184 2.76176 -76.5616
255 1 116.373 2.76176 -76.5616
257 1 119.562 2.76176 -76.5616
259 1 122.751 2.76176 -76.5616
261 1 125.94 2.76176 -76.5616
263 1 129.129 2.76176 -76.5616
265 1 132.318 2.76176 -76.5616
266 1 -76.5616 5.52351 -76.5616
268 1 -73.3726 5.52351 -76.5616
270 1 -70.1836 5.52351 -76.5616
272 1 -66.9946 5.52351 -76.5616
274 1 -63.8056 5.52351 -76.5616
276 1 -60.6166 5.52351 -76.5616
278 1 -57.4276 5.52351 -76.5616
280 1 -54.2386 5.52351 -76.5616
282 1 -51.0496 5.52351 -76.5616
284 1 -47.8606 5.52351 -76.5616
286 1 -44.6716 5.52351 -76.5616
288 1 -41.4826 5.52351 -76.5616
290 1 -38.2936 5.52351 -76.5616
292 1 -35.1046 5.52351 -76.5616
294 1 -31.9156 5.52351 -76.5616
296 1 -28.7266 5.52351 -76.5616
298 1 -25.5376 5.52351 -76.5616
300 1 -22.3486 5.52351 -76.5616
302 1 -19.1596 5.52351 -76.5616
304 1 -15.9706 5.52351 -76.5616
306 1 -12.7816 5.52351 -76.5616
308 1 -9.59255 5.52351 -76.5616
310 1 -6.40355 5.52351 -76.5616
312 1 -3.21455 5.52351 -76.5616
314 1 -0.0255544 5.52351 -76.5616
316 1 3.16345 5.52351 -76.5616
318 1 6.35245 5.52351 -76.5616
320 1 9.54145 5.52351 -76.5616
322 1 12.7304 5.52351 -76.5616
324 1 15.9194 5.52351 -76.5616
326 1 19.1084 5.52351 -76.5616
328 1 22.2974 5.52351 -76.5616
330 1 25.4864 5.52351 -76.5616
332 1 28.6754 5.52351 -76.5616
334 1 31.8644 5.52351 -76.5616
336 1 35.0534 5.52351 -76.5616
338 1 38.2424 5.52351 -76.5616
340 1 41.4314 5.52351 -76.5616
342 1 44.6204 5.52351 -76.5616
344 1 47.8094 5.52351 -76.5616
346 1 50.9984 5.52351 -76.5616
348 1 54.1874 5.52351 -76.5616
350 1 57.3764 5.52351 -76.5616
352 1 60.5654 5.52351 -76.5616
354 1 63.7544 5.52351 -76.5616
356 1 66.9434 5.52351 -76.5616
358 1 70.1324 5.52351 -76.5616
360 1 73.3214 5.52351 -76.5616
362 1 76.5104 5.52351 -76.5616
364 1 79.6994 5.52351 -76.5616
366 1 82.8884 5.52351 -76.5616
368 1 86.0774 5.52351 -76.5616
370 1 89.2664 5.52351 -76.5616
372 1 92.4554 5.52351 -76.5616
374 1 95.6444 5.52351 -76.5616
376 1 98.8334 5.52351 -76.5616
378 1 102.022 5.52351 -76.5616
380 1 105.211 5.52351 -76.5616
382 1 108.4 5.52351 -76.5616
384 1 111.589 5.52351 -76.5616
386 1 114.778 5.52351 -76.5616
388 1 117.967 5.52351 -76.5616
390 1 121.156 5.52351 -76.5616
392 1 124.345 5.52351 -76.5616
394 1 127.534 5.52351 -76.5616
396 1 130.723 5.52351 -76.5616
398 1 133.912 5.52351 -76.5616
400 1 -74.9671 8.28527 -76.5616
402 1 -71.7781 8.28527 -76.5616
404 1 -68.5891 8.28527 -76.5616
406 1 -65.4001 8.28527 -76.5616
408 1 -62.2111 8.28527 -76.5616
410 1 -59.0221 8.28527 -76.5616
412 1 -55.8331 8.28527 -76.5616
414 1 -52.6441 8.28527 -76.5616
416 1 -49.4551 8.28527 -76.5616
418 1 -46.2661 8.28527 -76.5616
420 1 -43.0771 8.28527 -76.5616
422 1 -39.8881 8.28527 -76.5616
424 1 -36.6991 8.28527 -76.5616
426 1 -33.5101 8.28527 -76.5616
428 1 -30.3211 8.28527 -76.5616
430 1 -27.1321 8.28527 -76.5616
432 1 -23.9431 8.28527 -76.5616
434 1 -20.7541 8.28527 -76.5616
436 1 -17.5651 8.28527 -76.5616
438 1 -14.3761 8.28527 -76.5616
440 1 -11.1871 8.28527 -76.5616
442 1 -7.99805 8.28527 -76.5616
444 1 -4.80905 8.28527 -76.5616
446 1 -1.62005 8.28527 -76.5616
448 1 1.56895 8.28527 -76.5616
450 1 4.75795 8.28527 -76.5616
452 1 7.94695 8.28527 -76.5616
454 1 11.1359 8.28527 -76.5616
456 1 14.3249 8.28527 -76.5616
458 1 17.5139 8.28527 -76.5616
460 1 20.7029 8.28527 -76.5616
462 1 23.8919 8.28527 -76.5616
464 1 27.0809 8.28527 -76.5616
466 1 30.2699 8.28527 -76.5616
468 1 33.4589 8.28527 -76.5616
470 1 36.6479 8.28527 -76.5616
472 1 39.8369 8.28527 -76.5616
474 1 43.0259 8.28527 -76.5616
476 1 46.2149 8.28527 -76.5616
478 1 49.4039 8.28527 -76.5616
480 1 52.5929 8.28527 -76.5616
482 1 55.7819 8.28527 -76.5616
484 1 58.9709 8.28527 -76.5616
486 1 62.1599 8.28527 -76.5616
488 1 65.3489 8.28527 -76.5616
490 1 68.5379 8.28527 -76.5616
492 1 71.7269 8.28527 -76.5616
494 1 74.9159 8.28527 -76.5616
496 1 78.1049 8.28527 -76.5616
498 1 81.2939 8.28527 -76.5616
500 1 84.4829 8.28527 -76.5616
502 1 87.6719 8.28527 -76.5616
504 1 90.8609 8.28527 -76.5616
506 1 94.0499 8.28527 -76.5616
508 1 97.2389 8.28527 -76.5616
510 1 100.428 8.28527 -76.5616
512 1 103.617 8.28527 -76.5616
514 1 106.806 8.28527 -76.5616
516 1 109.995 8.28527 -76.5616
518 1 113.184 8.28527 -76.5616
520 1 116.373 8.28527 -76.5616
522 1 119.562 8.28527 -76.5616
524 1 122.751 8.28527 -76.5616
526 1 125.94 8.28527 -76.5616
528 1 129.129 8.28527 -76.5616
530 1 132.318 8.28527 -76.5616
531 1 -76.5616 11.047 -76.5616
533 1 -73.3726 11.047 -76.5616
535 1 -70.1836 11.047 -76.5616
537 1 -66.9946 11.047 -76.5616
539 1 -63.8056 11.047 -76.5616
541 1 -60.6166 11.047 -76.5616
543 1 -57.4276 11.047 -76.5616
545 1 -54.2386 11.047 -76.5616
547 1 -51.0496 11.047 -76.5616
549 1 -47.8606 11.047 -76.5616
551 1 -44.6716 11.047 -76.5616
553 1 -41.4826 11.047 -76.5616
555 1 -38.2936 11.047 -76.5616
557 1 -35.1046 11.047 -76.5616
559 1 -31.9156 11.047 -76.5616
561 1 -28.7266 11.047 -76.5616
563 1 -25.5376 11.047 -76.5616
565 1 -22.3486 11.047 -76.5616
567 1 -19.1596 11.047 -76.5616
569 1 -15.9706 11.047 -76.5616
571 1 -12.7816 11.047 -76.5616
573 1 -9.59255 11.047 -76.5616
575 1 -6.40355 11.047 -76.5616
577 1 -3.21455 11.047 -76.5616
579 1 -0.0255544 11.047 -76.5616
581 1 3.16345 11.047 -76.5616
583 1 6.35245 11.047 -76.5616
585 1 9.54145 11.047 -76.5616
587 1 12.7304 11.047 -76.5616
589 1 15.9194 11.047 -76.5616
591 1 19.1084 11.047 -76.5616
593 1 22.2974 11.047 -76.5616
595 1 25.4864 11.047 -76.5616
597 1 28.6754 11.047 -76.5616
599 1 31.8644 11.047 -76.5616
601 1 35.0534 11.047 -76.5616
603 1 38.2424 11.047 -76.5616
605 1 41.4314 11.047 -76.5616
607 1 44.6204 11.047 -76.5616
609 1 47.8094 11.047 -76.5616
611 1 50.9984 11.047 -76.5616
613 1 54.1874 11.047 -76.5616
615 1 57.3764 11.047 -76.5616
617 1 60.5654 11.047 -76.5616
619 1 63.7544 11.047 -76.5616
621 1 66.9434 11.047 -76.5616
623 1 70.1324 11.047 -76.5616
625 1 73.3214 11.047 -76.5616
627 1 76.5104 11.047 -76.5616
629 1 79.6994 11.047 -76.5616
631 1 82.8884 11.047 -76.5616
633 1 86.0774 11.047 -76.5616
635 1 89.2664 11.047 -76.5616
637 1 92.4554 11.047 -76.5616
639 1 95.6444 11.047 -76.5616
641 1 98.8334 11.047 -76.5616
643 1 102.022 11.047 -76.5616
645 1 105.211 11.047 -76.5616
647 1 108.4 11.047 -76.5616
649 1 111.589 11.047 -76.5616
651 1 114.778 11.047 -76.5616
653 1 117.967 11.047 -76.5616
655 1 121.156 11.047 -76.5616
657 1 124.345 11.047 -76.5616
659 1 127.534 11.047 -76.5616
661 1 130.723 11.047 -76.5616
663 1 133.912 11.047 -76.5616
665 1 -74.9671 13.8088 -76.5616
667 1 -71.7781 13.8088 -76.5616
669 1 -68.5891 13.8088 -76.5616
671 1 -65.4001 13.8088 -76.5616
673 1 -62.2111 13.8088 -76.5616
675 1 -59.0221 13.8088 -76.5616
677 1 -55.8331 13.8088 -76.5616
679 1 -52.6441 13.8088 -76.5616
681 1 -49.4551 13.8088 -76.5616
683 1 -46.2661 13.8088 -76.5616
685 1 -43.0771 13.8088 -76.5616
687 1 -39.8881 13.8088 -76.5616
689 1 -36.6991 13.8088 -76.5616
691 1 -33.5101 13.8088 -76.5616
693 1 -30.3211 13.8088 -76.5616
695 1 -27.1321 13.8088 -76.5616
697 1 -23.9431 13.8088 -76.5616
699 1 -20.7541 13.8088 -76.5616
701 1 -17.5651 13.8088 -76.5616
703 1 -14.3761 13.8088 -76.5616
705 1 -11.1871 13.8088 -76.5616
707 1 -7.99805 13.8088 -76.5616
709 1 -4.80905 13.8088 -76.5616
711 1 -1.62005 13.8088 -76.5616
713 1 1.56895 13.8088 -76.5616
715 1 4.75795 13.8088 -76.5616
717 1 7.94695 13.8088 -76.5616
719 1 11.1359 13.8088 -76.5616
721 1 14.3249 13.8088 -76.5616
723 1 17.5139 13.8088 -76.5616
725 1 20.7029 13.8088 -76.5616
727 1 23.8919 13.8088 -76.5616
729 1 27.0809 13.8088 -76.5616
731 1 30.2699 13.8088 -76.5616
733 1 33.4589 13.8088 -76.5616
735 1 36.6479 13.8088 -76.5616
737 1 39.8369 13.8088 -76.5616
739 1 43.0259 13.8088 -76.5616
741 1 46.2149 13.8088 -76.5616
743 1 49.4039 13.8088 -76.5616
745 1 52.5929 13.8088 -76.5616
747 1 55.7819 13.8088 -76.5616
749 1 58.9709 13.8088 -76.5616
751 1 62.1599 13.8088 -76.5616
753 1 65.3489 13.8088 -76.5616
755 1 68.5379 13.8088 -76.5616
757 1 71.7269 13.8088 -76.5616
759 1 74.9159 13.8088 -76.5616
761 1 78.1049 13.8088 -76.5616
763 1 81.2939 13.8088 -76.5616
765 1 84.4829 13.8088 -76.5616
767 1 87.6719 13.8088 -76.5616
769 1 90.8609 13.8088 -76.5616
771 1 94.0499 13.8088 -76.5616
773 1 97.2389 13.8088 -76.5616
775 1 100.428 13.8088 -76.5616
777 1 103.617 13.8088 -76.5616
779 1 106.806 13.8088 -76.5616
781 1 109.995 13.8088 -76.5616
783 1 113.184 13.8088 -76.5616
785 1 116.373 13.8088 -76.5616
787 1 119.562 13.8088 -76.5616
789 1 122.751 13.8088 -76.5616
791 1 125.94 13.8088 -76.5616
793 1 129.129 13.8088 -76.5616
795 1 132.318 13.8088 -76.5616
796 1 -76.5616 16.5705 -76.5616
798 1 -73.3726 16.5705 -76.5616
800 1 -70.1836 16.5705 -76.5616
802 1 -66.9946 16.5705 -76.5616
804 1 -63.8056 16.5705 -76.5616
806 1 -60.6166 16.5705 -76.5616
808 1 -57.4276 16.5705 -76.5616
810 1 -54.2386 16.5705 -76.5616
812 1 -51.0496 16.5705 -76.5616
814 1 -47.8606 16.5705 -76.5616
816 1 -44.6716 16.5705 -76.5616
818 1 -41.4826 16.5705 -76.5616
820 1 -38.2936 16.5705 -76.5616
822 1 -35.1046 16.5705 -76.5616
824 1 -31.9156 16.5705 -76.5616
826 1 -28.7266 16.5705 -76.5616
828 1 -25.5376 16.5705 -76.5616
830 1 -22.3486 16.5705 -76.5616
832 1 -19.1596 16.5705 -76.5616
834 1 -15.9706 16.5705 -76.5616
836 1 -12.7816 16.5705 -76.5616
838 1 -9.59255 16.5705 -76.5616
840 1 -6.40355 16.5705 -76.5616
842 1 -3.21455 16.5705 -76.5616
844 1 -0.0255544 16.5705 -76.5616
846 1 3.16345 16.5705 -76.5616
848 1 6.35245 16.5705 -76.5616
850 1 9.54145 16.5705 -76.5616
852 1 12.7304 16.5705 -76.5616
854 1 15.9194 16.5705 -76.5616
856 1 19.1084 16.5705 -76.5616
858 1 22.2974 16.5705 -76.5616
860 1 25.4864 16.5705 -76.5616
862 1 28.6754 16.5705 -76.5616
864 1 31.8644 16.5705 -76.5616
866 1 35.0534 16.5705 -76.5616
868 1 38.2424 16.5705 -76.5616
870 1 41.4314 16.5705 -76.5616
872 1 44.6204 16.5705 -76.5616
874 1 47.8094 16.5705 -76.5616
876 1 50.9984 16.5705 -76.5616
878 1 54.1874 16.5705 -76.5616
880 1 57.3764 16.5705 -76.5616
882 1 60.5654 16.5705 -76.5616
884 1 63.7544 16.5705 -76.5616
886 1 66.9434 16.5705 -76.5616
888 1 70.1324 16.5705 -76.5616
890 1 73.3214 16.5705 -76.5616
892 1 76.5104 16.5705 -76.5616
894 1 79.6994 16.5705 -76.5616
896 1 82.8884 16.5705 -76.5616
898 1 86.0774 16.5705 -76.5616
900 1 89.2664 16.5705 -76.5616
902 1 92.4554 16.5705 -76.5616
904 1 95.6444 16.5705 -76.5616
906 1 98.8334 16.5705 -76.5616
908 1 102.022 16.5705 -76.5616
910 1 105.211 16.5705 -76.5616
912 1 108.4 16.5705 -76.5616
914 1 111.589 16.5705 -76.5616
916 1 114.778 16.5705 -76.5616
918 1 117.967 16.5705 -76.5616
920 1 121.156 16.5705 -76.5616
922 1 124.345 16.5705 -76.5616
924 1 127.534 16.5705 -76.5616
926 1 130.723 16.5705 -76.5616
928 1 133.912 16.5705 -76.5616
930 1 -74.9671 19.3323 -76.5616
932 1 -71.7781 19.3323 -76.5616
934 1 -68.5891 19.3323 -76.5616
936 1 -65.4001 19.3323 -76.5616
938 1 -62.2111 19.3323 -76.5616
940 1 -59.0221 19.3323 -76.5616
942 1 -55.8331 19.3323 -76.5616
944 1 -52.6441 19.3323 -76.5616
946 1 -49.4551 19.3323 -76.5616
948 1 -46.2661 19.3323 -76.5616
950 1 -43.0771 19.3323 -76.5616
952 1 -39.8881 19.3323 -76.5616
954 1 -36.6991 19.3323 -76.5616
956 1 -33.5101 19.3323 -76.5616
958 1 -30.3211 19.3323 -76.5616
960 1 -27.1321 19.3323 -76.5616
962 1 -23.9431 19.3323 -76.5616
964 1 -20.7541 19.3323 -76.5616
966 1 -17.5651 19.3323 -76.5616
968 1 -14.3761 19.3323 -76.5616
970 1 -11.1871 19.3323 -76.5616
972 1 -7.99805 19.3323 -76.5616
974 1 -4.80905 19.3323 -76.5616
976 1 -1.62005 19.3323 -76.5616
978 1 1.56895 19.3323 -76.5616
980 1 4.75795 19.3323 -76.5616
982 1 7.94695 19.3323 -76.5616
984 1 11.1359 19.3323 -76.5616
986 1 14.3249 19.3323 -76.5616
988 1 17.5139 19.3323 -76.5616
990 1 20.7029 19.3323 -76.5616
992 1 23.8919 19.3323 -76.5616
994 1 27.0809 19.3323 -76.5616
996 1 30.2699 19.3323 -76.5616
998 1 33.4589 19.3323 -76.5616
1000 1 36.6479 19.3323 -76.5616
1002 1 39.8369 19.3323 -76.5616
1004 1 43.0259 19.3323 -76.5616
1006 1 46.2149 19.3323 -76.5616
1008 1 49.4039 19.3323 -76.5616
1010 1 52.5929 19.3323 -76.5616
1012 1 55.7819 19.3323 -76.5616
1014 1 58.9709 19.3323 -76.5616
1016 1 62.1599 19.3323 -76.5616
1018 1 65.3489 19.3323 -76.5616
1020 1 68.5379 19.3323 -76.5616
1022 1 71.7269 19.3323 -76.5616
1024 1 74.9159 19.3323 -76.5616
1026 1 78.1049 19.3323 -76.5616
1028 1 81.2939 19.3323 -76.5616
1030 1 84.4829 19.3323 -76.5616
1032 1 87.6719 19.3323 -76.5616
1034 1 90.8609 19.3323 -76.5616
1036 1 94.0499 19.3323 -76.5616
1038 1 97.2389 19.3323 -76.5616
1040 1 100.428 19.3323 -76.5616
1042 1 103.617 19.3323 -76.5616
1044 1 106.806 19.3323 -76.5616
1046 1 109.995 19.3323 -76.5616
1048 1 113.184 19.3323 -76.5616
1050 1 116.373 19.3323 -76.5616
1052 1 119.562 19.3323 -76.5616
1054 1 122.751 19.3323 -76.5616
1056 1 125.94 19.3323 -76.5616
1058 1 129.129 19.3323 -76.5616
1060 1 132.318 19.3323 -76.5616
1061 1 -76.5616 22.094 -76.5616
1063 1 -73.3726 22.094 -76.5616
1065 1 -70.1836 22.094 -76.5616
1067 1 -66.9946 22.094 -76.5616
1069 1 -63.8056 22.094 -76.5616
1071 1 -60.6166 22.094 -76.5616
1073 1 -57.4276 22.094 -76.5616
1075 1 -54.2386 22.094 -76.5616
1077 1 -51.0496 22.094 -76.5616
1079 1 -47.8606 22.094 -76.5616
1081 1 -44.6716 22.094 -76.5616
1083 1 -41.4826 22.094 -76.5616
1085 1 -38.2936 22.094 -76.5616
1087 1 -35.1046 22.094 -76.5616
1089 1 -31.9156 22.094 -76.5616
1091 1 -28.7266 22.094 -76.5616
1093 1 -25.5376 22.094 -76.5616
1095 1 -22.3486 22.094 -76.5616
1097 1 -19.1596 22.094 -76.5616
1099 1 -15.9706 22.094 -76.5616
1101 1 -12.7816 22.094 -76.5616
1103 1 -9.59255 22.094 -76.5616
1105 1 -6.40355 22.094 -76.5616
1107 1 -3.21455 22.094 -76.5616
1109 1 -0.0255544 22.094 -76.5616
1111 1 3.16345 22.094 -76.5616
1113 1 6.35245 22.094 -76.5616
1115 1 9.54145 22.094 -76.5616
1117 1 12.7304 22.094 -76.5616
1119 1 15.9194 22.094 -76.5616
1121 1 19.1084 22.094 -76.5616
1123 1 22.2974 22.094 -76.5616
1125 1 25.4864 22.094 -76.5616
1127 1 28.6754 22.094 -76.5616
1129 1 31.8644 22.094 -76.5616
1131 1 35.0534 22.094 -76.5616
1133 1 38.2424 22.094 -76.5616
1135 1 41.4314 22.094 -76.5616
1137 1 44.6204 22.094 -76.5616
1139 1 47.8094 22.094 -76.5616
1141 1 50.9984 22.094 -76.5616
1143 1 54.1874 22.094 -76.5616
1145 1 57.3764 22.094 -76.5616
1147 1 60.5654 22.094 -76.5616
1149 1 63.7544 22.094 -76.5616
1151 1 66.9434 22.094 -76.5616
1153 1 70.1324 22.094 -76.5616
1155 1 73.3214 22.094 -76.5616
1157 1 76.5104 22.094 -76.5616
1159 1 79.6994 22.094 -76.5616
1161 1 82.8884 22.094 -76.5616
1163 1 86.0774 22.094 -76.5616
1165 1 89.2664 22.094 -76.5616
1167 1 92.4554 22.094 -76.5616
1169 1 95.6444 22.094 -76.5616
1171 1 98.8334 22.094 -76.5616
1173 1 102.022 22.094 -76.5616
1175 1 105.211 22.094 -76.5616
1177 1 108.4 22.094 -76.5616
1179 1 111.589 22.094 -76.5616
1181 1 114.778 22.094 -76.5616
1183 1 117.967 22.094 -76.5616
1185 1 121.156 22.094 -76.5616
1187 1 124.345 22.094 -76.5616
1189 1 127.534 22.094 -76.5616
1191 1 130.723 22.094 -76.5616
1193 1 133.912 22.094 -76.5616
1195 1 -74.9671 24.8558 -76.5616
1197 1 -71.7781 24.8558 -76.5616
1199 1 -68.5891 24.8558 -76.5616
1201 1 -65.4001 24.8558 -76.5616
1203 1 -62.2111 24.8558 -76.5616
1205 1 -59.0221 24.8558 -76.5616
1207 1 -55.8331 24.8558 -76.5616
1209 1 -52.6441 24.8558 -76.5616
1211 1 -49.4551 24.8558 -76.5616
1213 1 -46.2661 24.8558 -76.5616
1215 1 -43.0771 24.8558 -76.5616
1217 1 -39.8881 24.8558 -76.5616
1219 1 -36.6991 24.8558 -76.5616
1221 1 -33.5101 24.8558 -76.5616
1223 1 -30.3211 24.8558 -76.5616
1225 1 -27.1321 24.8558 -76.5616
1227 1 -23.9431 24.8558 -76.5616
1229 1 -20.7541 24.8558 -76.5616
1231 1 -17.5651 24.8558 -76.5616
1233 1 -14.3761 24.8558 -76.5616
1235 1 -11.1871 24.8558 -76.5616
1237 1 -7.99805 24.8558 -76.5616
1239 1 -4.80905 24.8558 -76.5616
1241 1 -1.62005 24.8558 -76.5616
1243 1 1.56895 24.8558 -76.5616
1245 1 4.75795 24.8558 -76.5616
1247 1 7.94695 24.8558 -76.5616
1249 1 11.1359 24.8558 -76.5616
1251 1 14.3249 24.8558 -76.5616
1253 1 17.5139 24.8558 -76.5616
1255 1 20.7029 24.8558 -76.5616
1257 1 23.8919 24.8558 -76.5616
1259 1 27.0809 24.8558 -76.5616
1261 1 30.2699 24.8558 -76.5616
1263 1 33.4589 24.8558 -76.5616
1265 1 36.6479 24.8558 -76.5616
1267 1 39.8369 24.8558 -76.5616
1269 1 43.0259 24.8558 -76.5616
1271 1 46.2149 24.8558 -76.5616
1273 1 49.4039 24.8558 -76.5616
1275 1 52.5929 24.8558 -76.5616
1277 1 55.7819 24.8558 -76.5616
1279 1 58.9709 24.8558 -76.5616
1281 1 62.1599 24.8558 -76.5616
1283 1 65.3489 24.8558 -76.5616
1285 1 68.5379 24.8558 -76.5616
1287 1 71.7269 24.8558 -76.5616
1289 1 74.9159 24.8558 -76.5616
1291 1 78.1049 24.8558 -76.5616
1293 1 81.2939 24.8558 -76.5616
1295 1 84.4829 24.8558 -76.5616
1297 1 87.6719 24.8558 -76.5616
1299 1 90.8609 24.8558 -76.5616
1301 1 94.0499 24.8558 -76.5616
1303 1 97.2389 24.8558 -76.5616
1305 1 100.428 24.8558 -76.5616
1307 1 103.617 24.8558 -76.5616
1309 1 106.806 24.8558 -76.5616
1311 1 109.995 24.8558 -76.5616
1313 1 113.184 24.8558 -76.5616
1315 1 116.373 24.8558 -76.5616
1317 1 119.562 24.8558 -76.5616
1319 1 122.751 24.8558 -76.5616
1321 1 125.94 24.8558 -76.5616
1323 1 129.129 24.8558 -76.5616
1325 1 132.318 24.8558 -76.5616
1326 1 -76.5616 27.6176 -76.5616
1328 1 -73.3726 27.6176 -76.5616
1330 1 -70.1836 27.6176 -76.5616
1332 1 -66.9946 27.6176 -76.5616
1334 1 -63.8056 27.6176 -76.5616
1336 1 -60.6166 27.6176 -76.5616
1338 1 -57.4276 27.6176 -76.5616
1340 1 -54.2386 27.6176 -76.5616
1342 1 -51.0496 27.6176 -76.5616
1344 1 -47.8606 27.6176 -76.5616
1346 1 -44.6716 27.6176 -76.5616
1348 1 -41.4826 27.6176 -76.5616
1350 1 -38.2936 27.6176 -76.5616
1352 1 -35.1046 27.6176 -76.5616
1354 1 -31.9156 27.6176 -76.5616
1356 1 -28.7266 27.6176 -76.5616
1358 1 -25.5376 27.6176 -76.5616
1360 1 -22.3486 27.6176 -76.5616
1362 1 -19.1596 27.6176 -76.5616
1364 1 -15.9706 27.6176 -76.5616
1366 1 -12.7816 27.6176 -76.5616
1368 1 -9.59255 27.6176 -76.5616
1370 1 -6.40355 27.6176 -76.5616
1372 1 -3.21455 27.6176 -76.5616
1374 1 -0.0255544 27.6176 -76.5616
1376 1 3.16345 27.6176 -76.5616
1378 1 6.35245 27.6176 -76.5616
1380 1 9.54145 27.6176 -76.5616
1382 1 12.7304 27.6176 -76.5616
1384 1 15.9194 27.6176 -76.5616
1386 1 19.1084 27.6176 -76.5616
1388 1 22.2974 27.6176 -76.5616
1390 1 25.4864 27.6176 -76.5616
1392 1 28.6754 27.6176 -76.5616
1394 1 31.8644 27.6176 -76.5616
1396 1 35.0534 27.6176 -76.5616
1398 1 38.2424 27.6176 -76.5616
1400 1 41.4314 27.6176 -76.5616
1402 1 44.6204 27.6176 -76.5616
1404 1 47.8094 27.6176 -76.5616
1406 1 50.9984 27.6176 -76.5616
1408 1 54.1874 27.6176 -76.5616
1410 1 57.3764 27.6176 -76.5616
1412 1 60.5654 27.6176 -76.5616
1414 1 63.7544 27.6176 -76.5616
1416 1 66.9434 27.6176 -76.5616
1418 1 70.1324 27.6176 -76.5616
1420 1 73.3214 27.6176 -76.5616
1422 1 76.5104 27.6176 -76.5616
1424 1 79.6994 27.6176 -76.5616
1426 1 82.8884 27.6176 -76.5616
1428 1 86.0774 27.6176 -76.5616
1430 1 89.2664 27.6176 -76.5616
1432 1 92.4554 27.6176 -76.5616
1434 1 95.6444 27.6176 -76.5616
1436 1 98.8334 27.6176 -76.5616
1438 1 102.022 27.6176 -76.5616
1440 1 105.211 27.6176 -76.5616
1442 1 108.4 27.6176 -76.5616
1444 1 111.589 27.6176 -76.5616
1446 1 114.778 27.6176 -76.5616
1448 1 117.967 27.6176 -76.5616
1450 1 121.156 27.6176 -76.5616
1452 1 124.345 27.6176 -76.5616
1454 1 127.534 27.6176 -76.5616
1456 1 130.723 27.6176 -76.5616
1458 1 133.912 27.6176 -76.5616
1460 1 -74.9671 30.3793 -76.5616
1462 1 -71.7781 30.3793 -76.5616
1464 1 -68.5891 30.3793 -76.5616
1466 1 -65.4001 30.3793 -76.5616
1468 1 -62.2111 30.3793 -76.5616
1470 1 -59.0221 30.3793 -76.5616
1472 1 -55.8331 30.3793 -76.5616
1474 1 -52.6441 30.3793 -76.5616
1476 1 -49.4551 30.3793 -76.5616
1478 1 -46.2661 30.3793 -76.5616
1480 1 -43.0771 30.3793 -76.5616
1482 1 -39.8881 30.3793 -76.5616
1484 1 -36.6991 30.3793 -76.5616
1486 1 -33.5101 30.3793 -76.5616
1488 1 -30.3211 30.3793 -76.5616
1490 1 -27.1321 30.3793 -76.5616
1492 1 -23.9431 30.3793 -76.5616
1494 1 -20.7541 30.3793 -76.5616
1496 1 -17.5651 30.3793 -76.5616
1498 1 -14.3761 30.3793 -76.5616
1500 1 -11.1871 30.3793 -76.5616
1502 1 -7.99805 30.3793 -76.5616
1504 1 -4.80905 30.3793 -76.5616
1506 1 -1.62005 30.3793 -76.5616
1508 1 1.56895 30.3793 -76.5616
1510 1 4.75795 30.3793 -76.5616
1512 1 7.94695 30.3793 -76.5616
1514 1 11.1359 30.3793 -76.5616
1516 1 14.3249 30.3793 -76.5616
1518 1 17.5139 30.3793 -76.5616
1520 1 20.7029 30.3793 -76.5616
1522 1 23.8919 30.3793 -76.5616
1524 1 27.0809 30.3793 -76.5616
1526 1 30.2699 30.3793 -76.5616
1528 1 33.4589 30.3793 -76.5616
1530 1 36.6479 30.3793 -76.5616
1532 1 39.8369 30.3793 -76.5616
1534 1 43.0259 30.3793 -76.5616
1536 1 46.2149 30.3793 -76.5616
1538 1 49.4039 30.3793 -76.5616
1540 1 52.5929 30.3793 -76.5616
1542 1 55.7819 30.3793 -76.5616
1544 1 58.9709 30.3793 -76.5616
1546 1 62.1599 30.3793 -76.5616
1548 1 65.3489 30.3793 -76.5616
1550 1 68.5379 30.3793 -76.5616
1552 1 71.7269 30.3793 -76.5616
1554 1 74.9159 30.3793 -76.5616
1556 1 78.1049 30.3793 -76.5616
1558 1 81.2939 30.3793 -76.5616
1560 1 84.4829 30.3793 -76.5616
1562 1 87.6719 30.3793 -76.5616
1564 1 90.8609 30.3793 -76.5616
1566 1 94.0499 30.3793 -76.5616
1568 1 97.2389 30.3793 -76.5616
1570 1 100.428 30.3793 -76.5616
1572 1 103.617 30.3793 -76.5616
1574 1 106.806 30.3793 -76.5616
1576 1 109.995 30.3793 -76.5616
1578 1 113.184 30.3793 -76.5616
1580 1 116.373 30.3793 -76.5616
1582 1 119.562 30.3793 -76.5616
1584 1 122.751 30.3793 -76.5616
1586 1 125.94 30.3793 -76.5616
1588 1 129.129 30.3793 -76.5616
1590 1 132.318 30.3793 -76.5616
1591 1 -76.5616 33.1411 -76.5616
1592 1 -73.3726 33.1411 -76.5616
1593 1 -70.1836 33.1411 -76.5616
1594 1 -66.9946 33.1411 -76.5616
1595 1 -63.8056 33.1411 -76.5616
1596 1 -60.6166 33.1411 -76.5616
1597 1 -57.4276 33.1411 -76.5616
1598 1 -54.2386 33.1411 -76.5616
1599 1 -51.0496 33.1411 -76.5616
1600 1 -47.8606 33.1411 -76.5616
1601 1 -44.6716 33.1411 -76.5616
1602 1 -41.4826 33.1411 -76.5616
1603 1 -38.2936 33.1411 -76.5616
1604 1 -35.1046 33.1411 -76.5616
1605 1 -31.9156 33.1411 -76.5616
1606 1 -28.7266 33.1411 -76.5616
1607 1 -25.5376 33.1411 -76.5616
1608 1 -22.3486 33.1411 -76.5616
1609 1 -19.1596 33.1411 -76.5616
1610 1 -15.9706 33.1411 -76.5616
1611 1 -12.7816 33.1411 -76.5616
1612 1 -9.59255 33.1411 -76.5616
1613 1 -6.40355 33.1411 -76.5616
1614 1 -3.21455 33.1411 -76.5616
1615 1 -0.0255544 33.1411 -76.5616
1616 1 3.16345 33.1411 -76.5616
1617 1 6.35245 33.1411 -76.5616
1618 1 9.54145 33.1411 -76.5616
1619 1 12.7304 33.1411 -76.5616
1620 1 15.9194 33.1411 -76.5616
1621 1 19.1084 33.1411 -76.5616
1622 1 22.2974 33.1411 -76.5616
1623 1 25.4864 33.1411 -76.5616
1624 1 28.6754 33.1411 -76.5616
1625 1 31.8644 33.1411 -76.5616
1626 1 35.0534 33.1411 -76.5616
1627 1 38.2424 33.1411 -76.5616
1628 1 41.4314 33.1411 -76.5616
1629 1 44.6204 33.1411 -76.5616
1630 1 47.8094 33.1411 -76.5616
1631 1 50.9984 33.1411 -76.5616
1632 1 54.1874 33.1411 -76.5616
1633 1 57.3764 33.1411 -76.5616
1634 1 60.5654 33.1411 -76.5616
1635 1 63.7544 33.1411 -76.5616
1636 1 66.9434 33.1411 -76.5616
1637 1 70.1324 33.1411 -76.5616
1638 1 73.3214 33.1411 -76.5616
1639 1 76.5104 33.1411 -76.5616
1640 1 79.6994 33.1411 -76.5616
1641 1 82.8884 33.1411 -76.5616
1642 1 86.0774 33.1411 -76.5616
1643 1 89.2664 33.1411 -76.5616
1644 1 92.4554 33.1411 -76.5616
1645 1 95.6444 33.1411 -76.5616
1646 1 98.8334 33.1411 -76.5616
1647 1 102.022 33.1411 -76.5616
1648 1 105.211 33.1411 -76.5616
1649 1 108.4 33.1411 -76.5616
1650 1 111.589 33.1411 -76.5616
1651 1 114.778 33.1411 -76.5616
1652 1 117.967 33.1411 -76.5616
1653 1 121.156 33.1411 -76.5616
1654 1 124.345 33.1411 -76.5616
1655 1 127.534 33.1411 -76.5616
1656 1 130.723 33.1411 -76.5616
1657 1 133.912 33.1411 -76.5616
2 1 -74.999 1.01668 -68.2769
4 1 -71.81 1.01668 -68.2769
6 1 -68.621 1.01668 -68.2769
8 1 -65.432 1.01668 -68.2769
10 1 -62.243 1.01668 -68.2769
12 1 -59.054 1.01668 -68.2769
14 1 -55.865 1.01668 -68.2769
16 1 -52.676 1.01668 -68.2769
18 1 -49.487 1.01668 -68.2769
20 1 -46.298 1.01668 -68.2769
22 1 -43.109 1.01668 -68.2769
24 1 -39.92 1.01668 -68.2769
26 1 -36.731 1.01668 -68.2769
28 1 -33.542 1.01668 -68.2769
30 1 -30.353 1.01668 -68.2769
32 1 -27.164 1.01668 -68.2769
34 1 -23.975 1.01668 -68.2769
36 1 -20.786 1.01668 -68.2769
38 1 -17.597 1.01668 -68.2769
40 1 -14.408 1.01668 -68.2769
42 1 -11.219 1.01668 -68.2769
44 1 -8.03005 1.01668 -68.2769
46 1 -4.84105 1.01668 -68.2769
48 1 -1.65205 1.01668 -68.2769
50 1 1.53695 1.01668 -68.2769
52 1 4.72595 1.01668 -68.2769
54 1 7.91495 1.01668 -68.2769
56 1 11.104 1.01668 -68.2769
58 1 14.293 1.01668 -68.2769
60 1 17.482 1.01668 -68.2769
62 1 20.671 1.01668 -68.2769
64 1 23.86 1.01668 -68.2769
66 1 27.049 1.01668 -68.2769
68 1 30.238 1.01668 -68.2769
70 1 33.427 1.01668 -68.2769
72 1 36.616 1.01668 -68.2769
74 1 39.805 1.01668 -68.2769
76 1 42.994 1.01668 -68.2769
78 1 46.183 1.01668 -68.2769
80 1 49.372 1.01668 -68.2769
82 1 52.561 1.01668 -68.2769
84 1 55.75 1.01668 -68.2769
86 1 58.939 1.01668 -68.2769
88 1 62.128 1.01668 -68.2769
90 1 65.317 1.01668 -68.2769
92 1 68.506 1.01668 -68.2769
94 1 71.695 1.01668 -68.2769
96 1 74.884 1.01668 -68.2769
98 1 78.073 1.01668 -68.2769
100 1 81.262 1.01668 -68.2769
102 1 84.451 1.01668 -68.2769
104 1 87.64 1.01668 -68.2769
106 1 90.829 1.01668 -68.2769
108 1 94.018 1.01668 -68.2769
110 1 97.207 1.01668 -68.2769
112 1 100.396 1.01668 -68.2769
114 1 103.585 1.01668 -68.2769
116 1 106.774 1.01668 -68.2769
118 1 109.963 1.01668 -68.2769
120 1 113.152 1.01668 -68.2769
122 1 116.341 1.01668 -68.2769
124 1 119.53 1.01668 -68.2769
126 1 122.719 1.01668 -68.2769
128 1 125.908 1.01668 -68.2769
130 1 129.097 1.01668 -68.2769
132 1 132.286 1.01668 -68.2769
134 1 -76.5614 3.68225 -68.2941
136 1 -73.4045 3.77843 -68.2769
138 1 -70.2155 3.77843 -68.2769
140 1 -67.0265 3.77843 -68.2769
142 1 -63.8375 3.77843 -68.2769
144 1 -60.6485 3.77843 -68.2769
146 1 -57.4595 3.77843 -68.2769
148 1 -54.2705 3.77843 -68.2769
150 1 -51.0815 3.77843 -68.2769
152 1 -47.8925 3.77843 -68.2769
154 1 -44.7035 3.77843 -68.2769
156 1 -41.5145 3.77843 -68.2769
158 1 -38.3255 3.77843 -68.2769
160 1 -35.1365 3.77843 -68.2769
162 1 -31.9475 3.77843 -68.2769
164 1 -28.7585 3.77843 -68.2769
166 1 -25.5695 3.77843 -68.2769
168 1 -22.3805 3.77843 -68.2769
170 1 -19.1915 3.77843 -68.2769
172 1 -16.0025 3.77843 -68.2769
174 1 -12.8135 3.77843 -68.2769
176 1 -9.62455 3.77843 -68.2769
178 1 -6.43555 3.77843 -68.2769
180 1 -3.24655 3.77843 -68.2769
182 1 -0.0575483 3.77843 -68.2769
184 1 3.13145 3.77843 -68.2769
186 1 6.32045 3.77843 -68.2769
188 1 9.50945 3.77843 -68.2769