ITEM: TIMESTEP
14000
ITEM: NUMBER OF ATOMS
14121
ITEM: BOX BOUNDS ss ss ss
-5.0882818594800348e+01 4.6367096219110488e+02
-1.0231754111503553e+00 3.4015119452478721e+01
-5.0868382294117552e+01 3.1717008068815142e+02
ITEM: ATOMS id type x y z
1 1 -50.9578 0 -50.9578
3 1 -47.7688 0 -50.9578
5 1 -44.5798 0 -50.9578
7 1 -41.3908 0 -50.9578
9 1 -38.2018 0 -50.9578
11 1 -35.0128 0 -50.9578
13 1 -31.8238 0 -50.9578
15 1 -28.6348 0 -50.9578
17 1 -25.4458 0 -50.9578
19 1 -22.2568 0 -50.9578
21 1 -19.0678 0 -50.9578
23 1 -15.8788 0 -50.9578
25 1 -12.6898 0 -50.9578
27 1 -9.50078 0 -50.9578
29 1 -6.31178 0 -50.9578
31 1 -3.12278 0 -50.9578
33 1 0.0662189 0 -50.9578
35 1 3.25522 0 -50.9578
37 1 6.44422 0 -50.9578
39 1 9.63322 0 -50.9578
41 1 12.8222 0 -50.9578
43 1 16.0112 0 -50.9578
45 1 19.2002 0 -50.9578
47 1 22.3892 0 -50.9578
49 1 25.5782 0 -50.9578
51 1 28.7672 0 -50.9578
53 1 31.9562 0 -50.9578
55 1 35.1452 0 -50.9578
57 1 38.3342 0 -50.9578
59 1 41.5232 0 -50.9578
61 1 44.7122 0 -50.9578
63 1 47.9012 0 -50.9578
65 1 51.0902 0 -50.9578
67 1 54.2792 0 -50.9578
69 1 57.4682 0 -50.9578
71 1 60.6572 0 -50.9578
73 1 63.8462 0 -50.9578
75 1 67.0352 0 -50.9578
77 1 70.2242 0 -50.9578
79 1 73.4132 0 -50.9578
81 1 76.6022 0 -50.9578
83 1 79.7912 0 -50.9578
85 1 82.9802 0 -50.9578
87 1 86.1692 0 -50.9578
89 1 89.3582 0 -50.9578
91 1 92.5472 0 -50.9578
93 1 95.7362 0 -50.9578
95 1 98.9252 0 -50.9578
97 1 102.114 0 -50.9578
99 1 105.303 0 -50.9578
101 1 108.492 0 -50.9578
103 1 111.681 0 -50.9578
105 1 114.87 0 -50.9578
107 1 118.059 0 -50.9578
109 1 121.248 0 -50.9578
111 1 124.437 0 -50.9578
113 1 127.626 0 -50.9578
115 1 130.815 0 -50.9578
117 1 134.004 0 -50.9578
119 1 137.193 0 -50.9578
121 1 140.382 0 -50.9578
123 1 143.571 0 -50.9578
125 1 146.76 0 -50.9578
127 1 149.949 0 -50.9578
129 1 153.138 0 -50.9578
131 1 156.327 0 -50.9578
133 1 159.516 0 -50.9578
135 1 -49.3633 2.76176 -50.9578
137 1 -46.1743 2.76176 -50.9578
139 1 -42.9853 2.76176 -50.9578
141 1 -39.7963 2.76176 -50.9578
143 1 -36.6073 2.76176 -50.9578
145 1 -33.4183 2.76176 -50.9578
147 1 -30.2293 2.76176 -50.9578
149 1 -27.0403 2.76176 -50.9578
151 1 -23.8513 2.76176 -50.9578
153 1 -20.6623 2.76176 -50.9578
155 1 -17.4733 2.76176 -50.9578
157 1 -14.2843 2.76176 -50.9578
159 1 -11.0953 2.76176 -50.9578
161 1 -7.90628 2.76176 -50.9578
163 1 -4.71728 2.76176 -50.9578
165 1 -1.52828 2.76176 -50.9578
167 1 1.66072 2.76176 -50.9578
169 1 4.84972 2.76176 -50.9578
171 1 8.03872 2.76176 -50.9578
173 1 11.2277 2.76176 -50.9578
175 1 14.4167 2.76176 -50.9578
177 1 17.6057 2.76176 -50.9578
179 1 20.7947 2.76176 -50.9578
181 1 23.9837 2.76176 -50.9578
183 1 27.1727 2.76176 -50.9578
185 1 30.3617 2.76176 -50.9578
187 1 33.5507 2.76176 -50.9578
189 1 36.7397 2.76176 -50.9578
191 1 39.9287 2.76176 -50.9578
193 1 43.1177 2.76176 -50.9578
195 1 46.3067 2.76176 -50.9578
197 1 49.4957 2.76176 -50.9578
199 1 52.6847 2.76176 -50.9578
201 1 55.8737 2.76176 -50.9578
203 1 59.0627 2.76176 -50.9578
205 1 62.2517 2.76176 -50.9578
207 1 65.4407 2.76176 -50.9578
209 1 68.6297 2.76176 -50.9578
211 1 71.8187 2.76176 -50.9578
213 1 75.0077 2.76176 -50.9578
215 1 78.1967 2.76176 -50.9578
217 1 81.3857 2.76176 -50.9578
219 1 84.5747 2.76176 -50.9578
221 1 87.7637 2.76176 -50.9578
223 1 90.9527 2.76176 -50.9578
225 1 94.1417 2.76176 -50.9578
227 1 97.3307 2.76176 -50.9578
229 1 100.52 2.76176 -50.9578
231 1 103.709 2.76176 -50.9578
233 1 106.898 2.76176 -50.9578
235 1 110.087 2.76176 -50.9578
237 1 113.276 2.76176 -50.9578
239 1 116.465 2.76176 -50.9578
241 1 119.654 2.76176 -50.9578
243 1 122.843 2.76176 -50.9578
245 1 126.032 2.76176 -50.9578
247 1 129.221 2.76176 -50.9578
249 1 132.41 2.76176 -50.9578
251 1 135.599 2.76176 -50.9578
253 1 138.788 2.76176 -50.9578
255 1 141.977 2.76176 -50.9578
257 1 145.166 2.76176 -50.9578
259 1 148.355 2.76176 -50.9578
261 1 151.544 2.76176 -50.9578
263 1 154.733 2.76176 -50.9578
265 1 157.922 2.76176 -50.9578
266 1 -50.9578 5.52351 -50.9578
268 1 -47.7688 5.52351 -50.9578
270 1 -44.5798 5.52351 -50.9578
272 1 -41.3908 5.52351 -50.9578
274 1 -38.2018 5.52351 -50.9578
276 1 -35.0128 5.52351 -50.9578
278 1 -31.8238 5.52351 -50.9578
280 1 -28.6348 5.52351 -50.9578
282 1 -25.4458 5.52351 -50.9578
284 1 -22.2568 5.52351 -50.9578
286 1 -19.0678 5.52351 -50.9578
288 1 -15.8788 5.52351 -50.9578
290 1 -12.6898 5.52351 -50.9578
292 1 -9.50078 5.52351 -50.9578
294 1 -6.31178 5.52351 -50.9578
296 1 -3.12278 5.52351 -50.9578
298 1 0.0662189 5.52351 -50.9578
300 1 3.25522 5.52351 -50.9578
302 1 6.44422 5.52351 -50.9578
304 1 9.63322 5.52351 -50.9578
306 1 12.8222 5.52351 -50.9578
308 1 16.0112 5.52351 -50.9578
310 1 19.2002 5.52351 -50.9578
312 1 22.3892 5.52351 -50.9578
314 1 25.5782 5.52351 -50.9578
316 1 28.7672 5.52351 -50.9578
318 1 31.9562 5.52351 -50.9578
320 1 35.1452 5.52351 -50.9578
322 1 38.3342 5.52351 -50.9578
324 1 41.5232 5.52351 -50.9578
326 1 44.7122 5.52351 -50.9578
328 1 47.9012 5.52351 -50.9578
330 1 51.0902 5.52351 -50.9578
332 1 54.2792 5.52351 -50.9578
334 1 57.4682 5.52351 -50.9578
336 1 60.6572 5.52351 -50.9578
338 1 63.8462 5.52351 -50.9578
340 1 67.0352 5.52351 -50.9578
342 1 70.2242 5.52351 -50.9578
344 1 73.4132 5.52351 -50.9578
346 1 76.6022 5.52351 -50.9578
348 1 79.7912 5.52351 -50.9578
350 1 82.9802 5.52351 -50.9578
352 1 86.1692 5.52351 -50.9578
354 1 89.3582 5.52351 -50.9578
356 1 92.5472 5.52351 -50.9578
358 1 95.7362 5.52351 -50.9578
360 1 98.9252 5.52351 -50.9578
362 1 102.114 5.52351 -50.9578
364 1 105.303 5.52351 -50.9578
366 1 108.492 5.52351 -50.9578
368 1 111.681 5.52351 -50.9578
370 1 114.87 5.52351 -50.9578
372 1 118.059 5.52351 -50.9578
374 1 121.248 5.52351 -50.9578
376 1 124.437 5.52351 -50.9578
378 1 127.626 5.52351 -50.9578
380 1 130.815 5.52351 -50.9578
382 1 134.004 5.52351 -50.9578
384 1 137.193 5.52351 -50.9578
386 1 140.382 5.52351 -50.9578
388 1 143.571 5.52351 -50.9578
390 1 146.76 5.52351 -50.9578
392 1 149.949 5.52351 -50.9578
394 1 153.138 5.52351 -50.9578
396 1 156.327 5.52351 -50.9578
398 1 159.516 5.52351 -50.9578
400 1 -49.3633 8.28527 -50.9578
402 1 -46.1743 8.28527 -50.9578
404 1 -42.9853 8.28527 -50.9578
406 1 -39.7963 8.28527 -50.9578
408 1 -36.6073 8.28527 -50.9578
410 1 -33.4183 8.28527 -50.9578
412 1 -30.2293 8.28527 -50.9578
414 1 -27.0403 8.28527 -50.9578
416 1 -23.8513 8.28527 -50.9578
418 1 -20.6623 8.28527 -50.9578
420 1 -17.4733 8.28527 -50.9578
422 1 -14.2843 8.28527 -50.9578
424 1 -11.0953 8.28527 -50.9578
426 1 -7.90628 8.28527 -50.9578
428 1 -4.71728 8.28527 -50.9578
430 1 -1.52828 8.28527 -50.9578
432 1 1.66072 8.28527 -50.9578
434 1 4.84972 8.28527 -50.9578
436 1 8.03872 8.28527 -50.9578
438 1 11.2277 8.28527 -50.9578
440 1 14.4167 8.28527 -50.9578
442 1 17.6057 8.28527 -50.9578
444 1 20.7947 8.28527 -50.9578
446 1 23.9837 8.28527 -50.9578
448 1 27.1727 8.28527 -50.9578
450 1 30.3617 8.28527 -50.9578
452 1 33.5507 8.28527 -50.9578
454 1 36.7397 8.28527 -50.9578
456 1 39.9287 8.28527 -50.9578
458 1 43.1177 8.28527 -50.9578
460 1 46.3067 8.28527 -50.9578
462 1 49.4957 8.28527 -50.9578
464 1 52.6847 8.28527 -50.9578
466 1 55.8737 8.28527 -50.9578
468 1 59.0627 8.28527 -50.9578
470 1 62.2517 8.28527 -50.9578
472 1 65.4407 8.28527 -50.9578
474 1 68.6297 8.28527 -50.9578
476 1 71.8187 8.28527 -50.9578
478 1 75.0077 8.28527 -50.9578
480 1 78.1967 8.28527 -50.9578
482 1 81.3857 8.28527 -50.9578
484 1 84.5747 8.28527 -50.9578
486 1 87.7637 8.28527 -50.9578
488 1 90.9527 8.28527 -50.9578
490 1 94.1417 8.28527 -50.9578
492 1 97.3307 8.28527 -50.9578
494 1 100.52 8.28527 -50.9578
496 1 103.709 8.28527 -50.9578
498 1 106.898 8.28527 -50.9578
500 1 110.087 8.28527 -50.9578
502 1 113.276 8.28527 -50.9578
504 1 116.465 8.28527 -50.9578
506 1 119.654 8.28527 -50.9578
508 1 122.843 8.28527 -50.9578
510 1 126.032 8.28527 -50.9578
512 1 129.221 8.28527 -50.9578
514 1 132.41 8.28527 -50.9578
516 1 135.599 8.28527 -50.9578
518 1 138.788 8.28527 -50.9578
520 1 141.977 8.28527 -50.9578
522 1 145.166 8.28527 -50.9578
524 1 148.355 8.28527 -50.9578
526 1 151.544 8.28527 -50.9578
528 1 154.733 8.28527 -50.9578
530 1 157.922 8.28527 -50.9578
531 1 -50.9578 11.047 -50.9578
533 1 -47.7688 11.047 -50.9578
535 1 -44.5798 11.047 -50.9578
537 1 -41.3908 11.047 -50.9578
539 1 -38.2018 11.047 -50.9578
541 1 -35.0128 11.047 -50.9578
543 1 -31.8238 11.047 -50.9578
545 1 -28.6348 11.047 -50.9578
547 1 -25.4458 11.047 -50.9578
549 1 -22.2568 11.047 -50.9578
551 1 -19.0678 11.047 -50.9578
553 1 -15.8788 11.047 -50.9578
555 1 -12.6898 11.047 -50.9578
557 1 -9.50078 11.047 -50.9578
559 1 -6.31178 11.047 -50.9578
561 1 -3.12278 11.047 -50.9578
563 1 0.0662189 11.047 -50.9578
565 1 3.25522 11.047 -50.9578
567 1 6.44422 11.047 -50.9578
569 1 9.63322 11.047 -50.9578
571 1 12.8222 11.047 -50.9578
573 1 16.0112 11.047 -50.9578
575 1 19.2002 11.047 -50.9578
577 1 22.3892 11.047 -50.9578
579 1 25.5782 11.047 -50.9578
581 1 28.7672 11.047 -50.9578
583 1 31.9562 11.047 -50.9578
585 1 35.1452 11.047 -50.9578
587 1 38.3342 11.047 -50.9578
589 1 41.5232 11.047 -50.9578
591 1 44.7122 11.047 -50.9578
593 1 47.9012 11.047 -50.9578
595 1 51.0902 11.047 -50.9578
597 1 54.2792 11.047 -50.9578
599 1 57.4682 11.047 -50.9578
601 1 60.6572 11.047 -50.9578
603 1 63.8462 11.047 -50.9578
605 1 67.0352 11.047 -50.9578
607 1 70.2242 11.047 -50.9578
609 1 73.4132 11.047 -50.9578
611 1 76.6022 11.047 -50.9578
613 1 79.7912 11.047 -50.9578
615 1 82.9802 11.047 -50.9578
617 1 86.1692 11.047 -50.9578
619 1 89.3582 11.047 -50.9578
621 1 92.5472 11.047 -50.9578
623 1 95.7362 11.047 -50.9578
625 1 98.9252 11.047 -50.9578
627 1 102.114 11.047 -50.9578
629 1 105.303 11.047 -50.9578
631 1 108.492 11.047 -50.9578
633 1 111.681 11.047 -50.9578
635 1 114.87 11.047 -50.9578
637 1 118.059 11.047 -50.9578
639 1 121.248 11.047 -50.9578
641 1 124.437 11.047 -50.9578
643 1 127.626 11.047 -50.9578
645 1 130.815 11.047 -50.9578
647 1 134.004 11.047 -50.9578
649 1 137.193 11.047 -50.9578
651 1 140.382 11.047 -50.9578
653 1 143.571 11.047 -50.9578
655 1 146.76 11.047 -50.9578
657 1 149.949 11.047 -50.9578
659 1 153.138 11.047 -50.9578
661 1 156.327 11.047 -50.9578
663 1 159.516 11.047 -50.9578
665 1 -49.3633 13.8088 -50.9578
667 1 -46.1743 13.8088 -50.9578
669 1 -42.9853 13.8088 -50.9578
671 1 -39.7963 13.8088 -50.9578
673 1 -36.6073 13.8088 -50.9578
675 1 -33.4183 13.8088 -50.9578
677 1 -30.2293 13.8088 -50.9578
679 1 -27.0403 13.8088 -50.9578
681 1 -23.8513 13.8088 -50.9578
683 1 -20.6623 13.8088 -50.9578
685 1 -17.4733 13.8088 -50.9578
687 1 -14.2843 13.8088 -50.9578
689 1 -11.0953 13.8088 -50.9578
691 1 -7.90628 13.8088 -50.9578
693 1 -4.71728 13.8088 -50.9578
695 1 -1.52828 13.8088 -50.9578
697 1 1.66072 13.8088 -50.9578
699 1 4.84972 13.8088 -50.9578
701 1 8.03872 13.8088 -50.9578
703 1 11.2277 13.8088 -50.9578
705 1 14.4167 13.8088 -50.9578
707 1 17.6057 13.8088 -50.9578
709 1 20.7947 13.8088 -50.9578
711 1 23.9837 13.8088 -50.9578
713 1 27.1727 13.8088 -50.9578
715 1 30.3617 13.8088 -50.9578
717 1 33.5507 13.8088 -50.9578
719 1 36.7397 13.8088 -50.9578
721 1 39.9287 13.8088 -50.9578
723 1 43.1177 13.8088 -50.9578
725 1 46.3067 13.8088 -50.9578
727 1 49.4957 13.8088 -50.9578
729 1 52.6847 13.8088 -50.9578
731 1 55.8737 13.8088 -50.9578
733 1 59.0627 13.8088 -50.9578
735 1 62.2517 13.8088 -50.9578
737 1 65.4407 13.8088 -50.9578
739 1 68.6297 13.8088 -50.9578
741 1 71.8187 13.8088 -50.9578
743 1 75.0077 13.8088 -50.9578
745 1 78.1967 13.8088 -50.9578
747 1 81.3857 13.8088 -50.9578
749 1 84.5747 13.8088 -50.9578
751 1 87.7637 13.8088 -50.9578
753 1 90.9527 13.8088 -50.9578
755 1 94.1417 13.8088 -50.9578
757 1 97.3307 13.8088 -50.9578
759 1 100.52 13.8088 -50.9578
761 1 103.709 13.8088 -50.9578
763 1 106.898 13.8088 -50.9578
765 1 110.087 13.8088 -50.9578
767 1 113.276 13.8088 -50.9578
769 1 116.465 13.8088 -50.9578
771 1 119.654 13.8088 -50.9578
773 1 122.843 13.8088 -50.9578
775 1 126.032 13.8088 -50.9578
777 1 129.221 13.8088 -50.9578
779 1 132.41 13.8088 -50.9578
781 1 135.599 13.8088 -50.9578
783 1 138.788 13.8088 -50.9578
785 1 141.977 13.8088 -50.9578
787 1 145.166 13.8088 -50.9578
789 1 148.355 13.8088 -50.9578
791 1 151.544 13.8088 -50.9578
793 1 154.733 13.8088 -50.9578
795 1 157.922 13.8088 -50.9578
796 1 -50.9578 16.5705 -50.9578
798 1 -47.7688 16.5705 -50.9578
800 1 -44.5798 16.5705 -50.9578
802 1 -41.3908 16.5705 -50.9578
804 1 -38.2018 16.5705 -50.9578
806 1 -35.0128 16.5705 -50.9578
808 1 -31.8238 16.5705 -50.9578
810 1 -28.6348 16.5705 -50.9578
812 1 -25.4458 16.5705 -50.9578
814 1 -22.2568 16.5705 -50.9578
816 1 -19.0678 16.5705 -50.9578
818 1 -15.8788 16.5705 -50.9578
820 1 -12.6898 16.5705 -50.9578
822 1 -9.50078 16.5705 -50.9578
824 1 -6.31178 16.5705 -50.9578
826 1 -3.12278 16.5705 -50.9578
828 1 0.0662189 16.5705 -50.9578
830 1 3.25522 16.5705 -50.9578
832 1 6.44422 16.5705 -50.9578
834 1 9.63322 16.5705 -50.9578
836 1 12.8222 16.5705 -50.9578
838 1 16.0112 16.5705 -50.9578
840 1 19.2002 16.5705 -50.9578
842 1 22.3892 16.5705 -50.9578
844 1 25.5782 16.5705 -50.9578
846 1 28.7672 16.5705 -50.9578
848 1 31.9562 16.5705 -50.9578
850 1 35.1452 16.5705 -50.9578
852 1 38.3342 16.5705 -50.9578
854 1 41.5232 16.5705 -50.9578
856 1 44.7122 16.5705 -50.9578
858 1 47.9012 16.5705 -50.9578
860 1 51.0902 16.5705 -50.9578
862 1 54.2792 16.5705 -50.9578
864 1 57.4682 16.5705 -50.9578
866 1 60.6572 16.5705 -50.9578
868 1 63.8462 16.5705 -50.9578
870 1 67.0352 16.5705 -50.9578
872 1 70.2242 16.5705 -50.9578
874 1 73.4132 16.5705 -50.9578
876 1 76.6022 16.5705 -50.9578
878 1 79.7912 16.5705 -50.9578
880 1 82.9802 16.5705 -50.9578
882 1 86.1692 16.5705 -50.9578
884 1 89.3582 16.5705 -50.9578
886 1 92.5472 16.5705 -50.9578
888 1 95.7362 16.5705 -50.9578
890 1 98.9252 16.5705 -50.9578
892 1 102.114 16.5705 -50.9578
894 1 105.303 16.5705 -50.9578
896 1 108.492 16.5705 -50.9578
898 1 111.681 16.5705 -50.9578
900 1 114.87 16.5705 -50.9578
902 1 118.059 16.5705 -50.9578
904 1 121.248 16.5705 -50.9578
906 1 124.437 16.5705 -50.9578
908 1 127.626 16.5705 -50.9578
910 1 130.815 16.5705 -50.9578
912 1 134.004 16.5705 -50.9578
914 1 137.193 16.5705 -50.9578
916 1 140.382 16.5705 -50.9578
918 1 143.571 16.5705 -50.9578
920 1 146.76 16.5705 -50.9578
922 1 149.949 16.5705 -50.9578
924 1 153.138 16.5705 -50.9578
926 1 156.327 16.5705 -50.9578
928 1 159.516 16.5705 -50.9578
930 1 -49.3633 19.3323 -50.9578
932 1 -46.1743 19.3323 -50.9578
934 1 -42.9853 19.3323 -50.9578
936 1 -39.7963 19.3323 -50.9578
938 1 -36.6073 19.3323 -50.9578
940 1 -33.4183 19.3323 -50.9578
942 1 -30.2293 19.3323 -50.9578
944 1 -27.0403 19.3323 -50.9578
946 1 -23.8513 19.3323 -50.9578
948 1 -20.6623 19.3323 -50.9578
950 1 -17.4733 19.3323 -50.9578
952 1 -14.2843 19.3323 -50.9578
954 1 -11.0953 19.3323 -50.9578
956 1 -7.90628 19.3323 -50.9578
958 1 -4.71728 19.3323 -50.9578
960 1 -1.52828 19.3323 -50.9578
962 1 1.66072 19.3323 -50.9578
964 1 4.84972 19.3323 -50.9578
966 1 8.03872 19.3323 -50.9578
968 1 11.2277 19.3323 -50.9578
970 1 14.4167 19.3323 -50.9578
972 1 17.6057 19.3323 -50.9578
974 1 20.7947 19.3323 -50.9578
976 1 23.9837 19.3323 -50.9578
978 1 27.1727 19.3323 -50.9578
980 1 30.3617 19.3323 -50.9578
982 1 33.5507 19.3323 -50.9578
984 1 36.7397 19.3323 -50.9578
986 1 39.9287 19.3323 -50.9578
988 1 43.1177 19.3323 -50.9578
990 1 46.3067 19.3323 -50.9578
992 1 49.4957 19.3323 -50.9578
994 1 52.6847 19.3323 -50.9578
996 1 55.8737 19.3323 -50.9578
998 1 59.0627 19.3323 -50.9578
1000 1 62.2517 19.3323 -50.9578
1002 1 65.4407 19.3323 -50.9578
1004 1 68.6297 19.3323 -50.9578
1006 1 71.8187 19.3323 -50.9578
1008 1 75.0077 19.3323 -50.9578
1010 1 78.1967 19.3323 -50.9578
1012 1 81.3857 19.3323 -50.9578
1014 1 84.5747 19.3323 -50.9578
1016 1 87.7637 19.3323 -50.9578
1018 1 90.9527 19.3323 -50.9578
1020 1 94.1417 19.3323 -50.9578
1022 1 97.3307 19.3323 -50.9578
1024 1 100.52 19.3323 -50.9578
1026 1 103.709 19.3323 -50.9578
1028 1 106.898 19.3323 -50.9578
1030 1 110.087 19.3323 -50.9578
1032 1 113.276 19.3323 -50.9578
1034 1 116.465 19.3323 -50.9578
1036 1 119.654 19.3323 -50.9578
1038 1 122.843 19.3323 -50.9578
1040 1 126.032 19.3323 -50.9578
1042 1 129.221 19.3323 -50.9578
1044 1 132.41 19.3323 -50.9578
1046 1 135.599 19.3323 -50.9578
1048 1 138.788 19.3323 -50.9578
1050 1 141.977 19.3323 -50.9578
1052 1 145.166 19.3323 -50.9578
1054 1 148.355 19.3323 -50.9578
1056 1 151.544 19.3323 -50.9578
1058 1 154.733 19.3323 -50.9578
1060 1 157.922 19.3323 -50.9578
1061 1 -50.9578 22.094 -50.9578
1063 1 -47.7688 22.094 -50.9578
1065 1 -44.5798 22.094 -50.9578
1067 1 -41.3908 22.094 -50.9578
1069 1 -38.2018 22.094 -50.9578
1071 1 -35.0128 22.094 -50.9578
1073 1 -31.8238 22.094 -50.9578
1075 1 -28.6348 22.094 -50.9578
1077 1 -25.4458 22.094 -50.9578
1079 1 -22.2568 22.094 -50.9578
1081 1 -19.0678 22.094 -50.9578
1083 1 -15.8788 22.094 -50.9578
1085 1 -12.6898 22.094 -50.9578
1087 1 -9.50078 22.094 -50.9578
1089 1 -6.31178 22.094 -50.9578
1091 1 -3.12278 22.094 -50.9578
1093 1 0.0662189 22.094 -50.9578
1095 1 3.25522 22.094 -50.9578
1097 1 6.44422 22.094 -50.9578
1099 1 9.63322 22.094 -50.9578
1101 1 12.8222 22.094 -50.9578
1103 1 16.0112 22.094 -50.9578
1105 1 19.2002 22.094 -50.9578
1107 1 22.3892 22.094 -50.9578
1109 1 25.5782 22.094 -50.9578
1111 1 28.7672 22.094 -50.9578
1113 1 31.9562 22.094 -50.9578
1115 1 35.1452 22.094 -50.9578
1117 1 38.3342 22.094 -50.9578
1119 1 41.5232 22.094 -50.9578
1121 1 44.7122 22.094 -50.9578
1123 1 47.9012 22.094 -50.9578
1125 1 51.0902 22.094 -50.9578
1127 1 54.2792 22.094 -50.9578
1129 1 57.4682 22.094 -50.9578
1131 1 60.6572 22.094 -50.9578
1133 1 63.8462 22.094 -50.9578
1135 1 67.0352 22.094 -50.9578
1137 1 70.2242 22.094 -50.9578
1139 1 73.4132 22.094 -50.9578
1141 1 76.6022 22.094 -50.9578
1143 1 79.7912 22.094 -50.9578
1145 1 82.9802 22.094 -50.9578
1147 1 86.1692 22.094 -50.9578
1149 1 89.3582 22.094 -50.9578
1151 1 92.5472 22.094 -50.9578
1153 1 95.7362 22.094 -50.9578
1155 1 98.9252 22.094 -50.9578
1157 1 102.114 22.094 -50.9578
1159 1 105.303 22.094 -50.9578
1161 1 108.492 22.094 -50.9578
1163 1 111.681 22.094 -50.9578
1165 1 114.87 22.094 -50.9578
1167 1 118.059 22.094 -50.9578
1169 1 121.248 22.094 -50.9578
1171 1 124.437 22.094 -50.9578
1173 1 127.626 22.094 -50.9578
1175 1 130.815 22.094 -50.9578
1177 1 134.004 22.094 -50.9578
1179 1 137.193 22.094 -50.9578
1181 1 140.382 22.094 -50.9578
1183 1 143.571 22.094 -50.9578
1185 1 146.76 22.094 -50.9578
1187 1 149.949 22.094 -50.9578
1189 1 153.138 22.094 -50.9578
1191 1 156.327 22.094 -50.9578
1193 1 159.516 22.094 -50.9578
1195 1 -49.3633 24.8558 -50.9578
1197 1 -46.1743 24.8558 -50.9578
1199 1 -42.9853 24.8558 -50.9578
1201 1 -39.7963 24.8558 -50.9578
1203 1 -36.6073 24.8558 -50.9578
1205 1 -33.4183 24.8558 -50.9578
1207 1 -30.2293 24.8558 -50.9578
1209 1 -27.0403 24.8558 -50.9578
1211 1 -23.8513 24.8558 -50.9578
1213 1 -20.6623 24.8558 -50.9578
1215 1 -17.4733 24.8558 -50.9578
1217 1 -14.2843 24.8558 -50.9578
1219 1 -11.0953 24.8558 -50.9578
1221 1 -7.90628 24.8558 -50.9578
1223 1 -4.71728 24.8558 -50.9578
1225 1 -1.52828 24.8558 -50.9578
1227 1 1.66072 24.8558 -50.9578
1229 1 4.84972 24.8558 -50.9578
1231 1 8.03872 24.8558 -50.9578
1233 1 11.2277 24.8558 -50.9578
1235 1 14.4167 24.8558 -50.9578
1237 1 17.6057 24.8558 -50.9578
1239 1 20.7947 24.8558 -50.9578
1241 1 23.9837 24.8558 -50.9578
1243 1 27.1727 24.8558 -50.9578
1245 1 30.3617 24.8558 -50.9578
1247 1 33.5507 24.8558 -50.9578
1249 1 36.7397 24.8558 -50.9578
1251 1 39.9287 24.8558 -50.9578
1253 1 43.1177 24.8558 -50.9578
1255 1 46.3067 24.8558 -50.9578
1257 1 49.4957 24.8558 -50.9578
1259 1 52.6847 24.8558 -50.9578
1261 1 55.8737 24.8558 -50.9578
1263 1 59.0627 24.8558 -50.9578
1265 1 62.2517 24.8558 -50.9578
1267 1 65.4407 24.8558 -50.9578
1269 1 68.6297 24.8558 -50.9578
1271 1 71.8187 24.8558 -50.9578
1273 1 75.0077 24.8558 -50.9578
1275 1 78.1967 24.8558 -50.9578
1277 1 81.3857 24.8558 -50.9578
1279 1 84.5747 24.8558 -50.9578
1281 1 87.7637 24.8558 -50.9578
1283 1 90.9527 24.8558 -50.9578
1285 1 94.1417 24.8558 -50.9578
1287 1 97.3307 24.8558 -50.9578
1289 1 100.52 24.8558 -50.9578
1291 1 103.709 24.8558 -50.9578
1293 1 106.898 24.8558 -50.9578
1295 1 110.087 24.8558 -50.9578
1297 1 113.276 24.8558 -50.9578
1299 1 116.465 24.8558 -50.9578
1301 1 119.654 24.8558 -50.9578
1303 1 122.843 24.8558 -50.9578
1305 1 126.032 24.8558 -50.9578
1307 1 129.221 24.8558 -50.9578
1309 1 132.41 24.8558 -50.9578
1311 1 135.599 24.8558 -50.9578
1313 1 138.788 24.8558 -50.9578
1315 1 141.977 24.8558 -50.9578
1317 1 145.166 24.8558 -50.9578
1319 1 148.355 24.8558 -50.9578
1321 1 151.544 24.8558 -50.9578
1323 1 154.733 24.8558 -50.9578
1325 1 157.922 24.8558 -50.9578
1326 1 -50.9578 27.6176 -50.9578
1328 1 -47.7688 27.6176 -50.9578
1330 1 -44.5798 27.6176 -50.9578
1332 1 -41.3908 27.6176 -50.9578
1334 1 -38.2018 27.6176 -50.9578
1336 1 -35.0128 27.6176 -50.9578
1338 1 -31.8238 27.6176 -50.9578
1340 1 -28.6348 27.6176 -50.9578
1342 1 -25.4458 27.6176 -50.9578
1344 1 -22.2568 27.6176 -50.9578
1346 1 -19.0678 27.6176 -50.9578
1348 1 -15.8788 27.6176 -50.9578
1350 1 -12.6898 27.6176 -50.9578
1352 1 -9.50078 27.6176 -50.9578
1354 1 -6.31178 27.6176 -50.9578
1356 1 -3.12278 27.6176 -50.9578
1358 1 0.0662189 27.6176 -50.9578
1360 1 3.25522 27.6176 -50.9578
1362 1 6.44422 27.6176 -50.9578
1364 1 9.63322 27.6176 -50.9578
1366 1 12.8222 27.6176 -50.9578
1368 1 16.0112 27.6176 -50.9578
1370 1 19.2002 27.6176 -50.9578
1372 1 22.3892 27.6176 -50.9578
1374 1 25.5782 27.6176 -50.9578
1376 1 28.7672 27.6176 -50.9578
1378 1 31.9562 27.6176 -50.9578
1380 1 35.1452 27.6176 -50.9578
1382 1 38.3342 27.6176 -50.9578
1384 1 41.5232 27.6176 -50.9578
1386 1 44.7122 27.6176 -50.9578
1388 1 47.9012 27.6176 -50.9578
1390 1 51.0902 27.6176 -50.9578
1392 1 54.2792 27.6176 -50.9578
1394 1 57.4682 27.6176 -50.9578
1396 1 60.6572 27.6176 -50.9578
1398 1 63.8462 27.6176 -50.9578
1400 1 67.0352 27.6176 -50.9578
1402 1 70.2242 27.6176 -50.9578
1404 1 73.4132 27.6176 -50.9578
1406 1 76.6022 27.6176 -50.9578
1408 1 79.7912 27.6176 -50.9578
1410 1 82.9802 27.6176 -50.9578
1412 1 86.1692 27.6176 -50.9578
1414 1 89.3582 27.6176 -50.9578
1416 1 92.5472 27.6176 -50.9578
1418 1 95.7362 27.6176 -50.9578
1420 1 98.9252 27.6176 -50.9578
1422 1 102.114 27.6176 -50.9578
1424 1 105.303 27.6176 -50.9578
1426 1 108.492 27.6176 -50.9578
1428 1 111.681 27.6176 -50.9578
1430 1 114.87 27.6176 -50.9578
1432 1 118.059 27.6176 -50.9578
1434 1 121.248 27.6176 -50.9578
1436 1 124.437 27.6176 -50.9578
1438 1 127.626 27.6176 -50.9578
1440 1 130.815 27.6176 -50.9578
1442 1 134.004 27.6176 -50.9578
1444 1 137.193 27.6176 -50.9578
1446 1 140.382 27.6176 -50.9578
1448 1 143.571 27.6176 -50.9578
1450 1 146.76 27.6176 -50.9578
1452 1 149.949 27.6176 -50.9578
1454 1 153.138 27.6176 -50.9578
1456 1 156.327 27.6176 -50.9578
1458 1 159.516 27.6176 -50.9578
1460 1 -49.3633 30.3793 -50.9578
1462 1 -46.1743 30.3793 -50.9578
1464 1 -42.9853 30.3793 -50.9578
1466 1 -39.7963 30.3793 -50.9578
1468 1 -36.6073 30.3793 -50.9578
1470 1 -33.4183 30.3793 -50.9578
1472 1 -30.2293 30.3793 -50.9578
1474 1 -27.0403 30.3793 -50.9578
1476 1 -23.8513 30.3793 -50.9578
1478 1 -20.6623 30.3793 -50.9578
1480 1 -17.4733 30.3793 -50.9578
1482 1 -14.2843 30.3793 -50.9578
1484 1 -11.0953 30.3793 -50.9578
1486 1 -7.90628 30.3793 -50.9578
1488 1 -4.71728 30.3793 -50.9578
1490 1 -1.52828 30.3793 -50.9578
1492 1 1.66072 30.3793 -50.9578
1494 1 4.84972 30.3793 -50.9578
1496 1 8.03872 30.3793 -50.9578
1498 1 11.2277 30.3793 -50.9578
1500 1 14.4167 30.3793 -50.9578
1502 1 17.6057 30.3793 -50.9578
1504 1 20.7947 30.3793 -50.9578
1506 1 23.9837 30.3793 -50.9578
1508 1 27.1727 30.3793 -50.9578
1510 1 30.3617 30.3793 -50.9578
1512 1 33.5507 30.3793 -50.9578
1514 1 36.7397 30.3793 -50.9578
1516 1 39.9287 30.3793 -50.9578
1518 1 43.1177 30.3793 -50.9578
1520 1 46.3067 30.3793 -50.9578
1522 1 49.4957 30.3793 -50.9578
1524 1 52.6847 30.3793 -50.9578
1526 1 55.8737 30.3793 -50.9578
1528 1 59.0627 30.3793 -50.9578
1530 1 62.2517 30.3793 -50.9578
1532 1 65.4407 30.3793 -50.9578
1534 1 68.6297 30.3793 -50.9578
1536 1 71.8187 30.3793 -50.9578
1538 1 75.0077 30.3793 -50.9578
1540 1 78.1967 30.3793 -50.9578
1542 1 81.3857 30.3793 -50.9578
1544 1 84.5747 30.3793 -50.9578
1546 1 87.7637 30.3793 -50.9578
1548 1 90.9527 30.3793 -50.9578
1550 1 94.1417 30.3793 -50.9578
1552 1 97.3307 30.3793 -50.9578
1554 1 100.52 30.3793 -50.9578
1556 1 103.709 30.3793 -50.9578
1558 1 106.898 30.3793 -50.9578
1560 1 110.087 30.3793 -50.9578
1562 1 113.276 30.3793 -50.9578
1564 1 116.465 30.3793 -50.9578
1566 1 119.654 30.3793 -50.9578
1568 1 122.843 30.3793 -50.9578
1570 1 126.032 30.3793 -50.9578
1572 1 129.221 30.3793 -50.9578
1574 1 132.41 30.3793 -50.9578
1576 1 135.599 30.3793 -50.9578
1578 1 138.788 30.3793 -50.9578
1580 1 141.977 30.3793 -50.9578
1582 1 145.166 30.3793 -50.9578
1584 1 148.355 30.3793 -50.9578
1586 1 151.544 30.3793 -50.9578
1588 1 154.733 30.3793 -50.9578
1590 1 157.922 30.3793 -50.9578
1591 1 -50.9578 33.1411 -50.9578
1592 1 -47.7688 33.1411 -50.9578
1593 1 -44.5798 33.1411 -50.9578
1594 1 -41.3908 33.1411 -50.9578
1595 1 -38.2018 33.1411 -50.9578
1596 1 -35.0128 33.1411 -50.9578
1597 1 -31.8238 33.1411 -50.9578
1598 1 -28.6348 33.1411 -50.9578
1599 1 -25.4458 33.1411 -50.9578
1600 1 -22.2568 33.1411 -50.9578
1601 1 -19.0678 33.1411 -50.9578
1602 1 -15.8788 33.1411 -50.9578
1603 1 -12.6898 33.1411 -50.9578
1604 1 -9.50078 33.1411 -50.9578
1605 1 -6.31178 33.1411 -50.9578
1606 1 -3.12278 33.1411 -50.9578
1607 1 0.0662189 33.1411 -50.9578
1608 1 3.25522 33.1411 -50.9578
1609 1 6.44422 33.1411 -50.9578
1610 1 9.63322 33.1411 -50.9578
1611 1 12.8222 33.1411 -50.9578
1612 1 16.0112 33.1411 -50.9578
1613 1 19.2002 33.1411 -50.9578
1614 1 22.3892 33.1411 -50.9578
1615 1 25.5782 33.1411 -50.9578
1616 1 28.7672 33.1411 -50.9578
1617 1 31.9562 33.1411 -50.9578
1618 1 35.1452 33.1411 -50.9578
1619 1 38.3342 33.1411 -50.9578
1620 1 41.5232 33.1411 -50.9578
1621 1 44.7122 33.1411 -50.9578
1622 1 47.9012 33.1411 -50.9578
1623 1 51.0902 33.1411 -50.9578
1624 1 54.2792 33.1411 -50.9578
1625 1 57.4682 33.1411 -50.9578
1626 1 60.6572 33.1411 -50.9578
1627 1 63.8462 33.1411 -50.9578
1628 1 67.0352 33.1411 -50.9578
1629 1 70.2242 33.1411 -50.9578
1630 1 73.4132 33.1411 -50.9578
1631 1 76.6022 33.1411 -50.9578
1632 1 79.7912 33.1411 -50.9578
1633 1 82.9802 33.1411 -50.9578
1634 1 86.1692 33.1411 -50.9578
1635 1 89.3582 33.1411 -50.9578
1636 1 92.5472 33.1411 -50.9578
1637 1 95.7362 33.1411 -50.9578
1638 1 98.9252 33.1411 -50.9578
1639 1 102.114 33.1411 -50.9578
1640 1 105.303 33.1411 -50.9578
1641 1 108.492 33.1411 -50.9578
1642 1 111.681 33.1411 -50.9578
1643 1 114.87 33.1411 -50.9578
1644 1 118.059 33.1411 -50.9578
1645 1 121.248 33.1411 -50.9578
1646 1 124.437 33.1411 -50.9578
1647 1 127.626 33.1411 -50.9578
1648 1 130.815 33.1411 -50.9578
1649 1 134.004 33.1411 -50.9578
1650 1 137.193 33.1411 -50.9578
1651 1 140.382 33.1411 -50.9578
1652 1 143.571 33.1411 -50.9578
1653 1 146.76 33.1411 -50.9578
1654 1 149.949 33.1411 -50.9578
1655 1 153.138 33.1411 -50.9578
1656 1 156.327 33.1411 -50.9578
1657 1 159.516 33.1411 -50.9578
2 1 -49.3953 1.01668 -42.6731
4 1 -46.2063 1.01668 -42.6731
6 1 -43.0173 1.01668 -42.6731
8 1 -39.8283 1.01668 -42.6731
10 1 -36.6393 1.01668 -42.6731
12 1 -33.4503 1.01668 -42.6731
14 1 -30.2613 1.01668 -42.6731
16 1 -27.0723 1.01668 -42.6731
18 1 -23.8833 1.01668 -42.6731
20 1 -20.6943 1.01668 -42.6731
22 1 -17.5053 1.01668 -42.6731
24 1 -14.3163 1.01668 -42.6731
26 1 -11.1273 1.01668 -42.6731
28 1 -7.93828 1.01668 -42.6731
30 1 -4.74928 1.01668 -42.6731
32 1 -1.56028 1.01668 -42.6731
34 1 1.62872 1.01668 -42.6731
36 1 4.81772 1.01668 -42.6731
38 1 8.00672 1.01668 -42.6731
40 1 11.1957 1.01668 -42.6731
42 1 14.3847 1.01668 -42.6731
44 1 17.5737 1.01668 -42.6731
46 1 20.7627 1.01668 -42.6731
48 1 23.9517 1.01668 -42.6731
50 1 27.1407 1.01668 -42.6731
52 1 30.3297 1.01668 -42.6731
54 1 33.5187 1.01668 -42.6731
56 1 36.7077 1.01668 -42.6731
58 1 39.8967 1.01668 -42.6731
60 1 43.0857 1.01668 -42.6731
62 1 46.2747 1.01668 -42.6731
64 1 49.4637 1.01668 -42.6731
66 1 52.6527 1.01668 -42.6731
68 1 55.8417 1.01668 -42.6731
70 1 59.0307 1.01668 -42.6731
72 1 62.2197 1.01668 -42.6731
74 1 65.4087 1.01668 -42.6731
76 1 68.5977 1.01668 -42.6731
78 1 71.7867 1.01668 -42.6731
80 1 74.9757 1.01668 -42.6731
82 1 78.1647 1.01668 -42.6731
84 1 81.3537 1.01668 -42.6731
86 1 84.5427 1.01668 -42.6731
88 1 87.7317 1.01668 -42.6731
90 1 90.9207 1.01668 -42.6731
92 1 94.1097 1.01668 -42.6731
94 1 97.2987 1.01668 -42.6731
96 1 100.488 1.01668 -42.6731
98 1 103.677 1.01668 -42.6731
100 1 106.866 1.01668 -42.6731
102 1 110.055 1.01668 -42.6731
104 1 113.244 1.01668 -42.6731
106 1 116.433 1.01668 -42.6731
108 1 119.622 1.01668 -42.6731
110 1 122.811 1.01668 -42.6731
112 1 126 1.01668 -42.6731
114 1 129.189 1.01668 -42.6731
116 1 132.378 1.01668 -42.6731
118 1 135.567 1.01668 -42.6731
120 1 138.756 1.01668 -42.6731
122 1 141.945 1.01668 -42.6731
124 1 145.134 1.01668 -42.6731
126 1 148.323 1.01668 -42.6731
128 1 151.512 1.01668 -42.6731
130 1 154.701 1.01668 -42.6731
132 1 157.89 1.01668 -42.6731
134 1 -50.9576 3.68225 -42.6903
136 1 -47.8008 3.77843 -42.6731
138 1 -44.6118 3.77843 -42.6731
140 1 -41.4228 3.77843 -42.6731
142 1 -38.2338 3.77843 -42.6731
144 1 -35.0448 3.77843 -42.6731
146 1 -31.8558 3.77843 -42.6731
148 1 -28.6668 3.77843 -42.6731
150 1 -25.4778 3.77843 -42.6731
152 1 -22.2888 3.77843 -42.6731
154 1 -19.0998 3.77843 -42.6731
156 1 -15.9108 3.77843 -42.6731
158 1 -12.7218 3.77843 -42.6731
160 1 -9.53278 3.77843 -42.6731
162 1 -6.34378 3.77843 -42.6731
164 1 -3.15478 3.77843 -42.6731
166 1 0.034225 3.77843 -42.6731
168 1 3.22322 3.77843 -42.6731
170 1 6.41222 3.77843 -42.6731
172 1 9.60122 3.77843 -42.6731
174 1 12.7902 3.77843 -42.6731
176 1 15.9792 3.77843 -42.6731
178 1 19.1682 3.77843 -42.6731
180 1 22.3572 3.77843 -42.6731
182 1 25.5462 3.77843 -42.6731
184 1 28.7352 3.77843 -42.6731
186 1 31.9242 3.77843 -42.6731
188 1 35.1132 3.77843 -42.6731
190 1 38.3022 3.77843 -42.6731
192 1 41.4912 3.77843 -42.6731