ITEM: TIMESTEP
17500
ITEM: NUMBER OF ATOMS
14121
ITEM: BOX BOUNDS ss ss ss
-7.3330926806786678e+01 5.7541148113614065e+02
-1.0231754111503553e+00 4.7999506929253293e+01
-7.3316490506103875e+01 4.2891059963318719e+02
ITEM: ATOMS id type x y z
1 1 -73.3611 0 -73.3611
3 1 -70.1721 0 -73.3611
5 1 -66.9831 0 -73.3611
7 1 -63.7941 0 -73.3611
9 1 -60.6051 0 -73.3611
11 1 -57.4161 0 -73.3611
13 1 -54.2271 0 -73.3611
15 1 -51.0381 0 -73.3611
17 1 -47.8491 0 -73.3611
19 1 -44.6601 0 -73.3611
21 1 -41.4711 0 -73.3611
23 1 -38.2821 0 -73.3611
25 1 -35.0931 0 -73.3611
27 1 -31.9041 0 -73.3611
29 1 -28.7151 0 -73.3611
31 1 -25.5261 0 -73.3611
33 1 -22.3371 0 -73.3611
35 1 -19.1481 0 -73.3611
37 1 -15.9591 0 -73.3611
39 1 -12.7701 0 -73.3611
41 1 -9.58108 0 -73.3611
43 1 -6.39208 0 -73.3611
45 1 -3.20308 0 -73.3611
47 1 -0.0140827 0 -73.3611
49 1 3.17492 0 -73.3611
51 1 6.36392 0 -73.3611
53 1 9.55292 0 -73.3611
55 1 12.7419 0 -73.3611
57 1 15.9309 0 -73.3611
59 1 19.1199 0 -73.3611
61 1 22.3089 0 -73.3611
63 1 25.4979 0 -73.3611
65 1 28.6869 0 -73.3611
67 1 31.8759 0 -73.3611
69 1 35.0649 0 -73.3611
71 1 38.2539 0 -73.3611
73 1 41.4429 0 -73.3611
75 1 44.6319 0 -73.3611
77 1 47.8209 0 -73.3611
79 1 51.0099 0 -73.3611
81 1 54.1989 0 -73.3611
83 1 57.3879 0 -73.3611
85 1 60.5769 0 -73.3611
87 1 63.7659 0 -73.3611
89 1 66.9549 0 -73.3611
91 1 70.1439 0 -73.3611
93 1 73.3329 0 -73.3611
95 1 76.5219 0 -73.3611
97 1 79.7109 0 -73.3611
99 1 82.8999 0 -73.3611
101 1 86.0889 0 -73.3611
103 1 89.2779 0 -73.3611
105 1 92.4669 0 -73.3611
107 1 95.6559 0 -73.3611
109 1 98.8449 0 -73.3611
111 1 102.034 0 -73.3611
113 1 105.223 0 -73.3611
115 1 108.412 0 -73.3611
117 1 111.601 0 -73.3611
119 1 114.79 0 -73.3611
121 1 117.979 0 -73.3611
123 1 121.168 0 -73.3611
125 1 124.357 0 -73.3611
127 1 127.546 0 -73.3611
129 1 130.735 0 -73.3611
131 1 133.924 0 -73.3611
133 1 137.113 0 -73.3611
135 1 -71.7666 2.76176 -73.3611
137 1 -68.5776 2.76176 -73.3611
139 1 -65.3886 2.76176 -73.3611
141 1 -62.1996 2.76176 -73.3611
143 1 -59.0106 2.76176 -73.3611
145 1 -55.8216 2.76176 -73.3611
147 1 -52.6326 2.76176 -73.3611
149 1 -49.4436 2.76176 -73.3611
151 1 -46.2546 2.76176 -73.3611
153 1 -43.0656 2.76176 -73.3611
155 1 -39.8766 2.76176 -73.3611
157 1 -36.6876 2.76176 -73.3611
159 1 -33.4986 2.76176 -73.3611
161 1 -30.3096 2.76176 -73.3611
163 1 -27.1206 2.76176 -73.3611
165 1 -23.9316 2.76176 -73.3611
167 1 -20.7426 2.76176 -73.3611
169 1 -17.5536 2.76176 -73.3611
171 1 -14.3646 2.76176 -73.3611
173 1 -11.1756 2.76176 -73.3611
175 1 -7.98658 2.76176 -73.3611
177 1 -4.79758 2.76176 -73.3611
179 1 -1.60858 2.76176 -73.3611
181 1 1.58042 2.76176 -73.3611
183 1 4.76942 2.76176 -73.3611
185 1 7.95842 2.76176 -73.3611
187 1 11.1474 2.76176 -73.3611
189 1 14.3364 2.76176 -73.3611
191 1 17.5254 2.76176 -73.3611
193 1 20.7144 2.76176 -73.3611
195 1 23.9034 2.76176 -73.3611
197 1 27.0924 2.76176 -73.3611
199 1 30.2814 2.76176 -73.3611
201 1 33.4704 2.76176 -73.3611
203 1 36.6594 2.76176 -73.3611
205 1 39.8484 2.76176 -73.3611
207 1 43.0374 2.76176 -73.3611
209 1 46.2264 2.76176 -73.3611
211 1 49.4154 2.76176 -73.3611
213 1 52.6044 2.76176 -73.3611
215 1 55.7934 2.76176 -73.3611
217 1 58.9824 2.76176 -73.3611
219 1 62.1714 2.76176 -73.3611
221 1 65.3604 2.76176 -73.3611
223 1 68.5494 2.76176 -73.3611
225 1 71.7384 2.76176 -73.3611
227 1 74.9274 2.76176 -73.3611
229 1 78.1164 2.76176 -73.3611
231 1 81.3054 2.76176 -73.3611
233 1 84.4944 2.76176 -73.3611
235 1 87.6834 2.76176 -73.3611
237 1 90.8724 2.76176 -73.3611
239 1 94.0614 2.76176 -73.3611
241 1 97.2504 2.76176 -73.3611
243 1 100.439 2.76176 -73.3611
245 1 103.628 2.76176 -73.3611
247 1 106.817 2.76176 -73.3611
249 1 110.006 2.76176 -73.3611
251 1 113.195 2.76176 -73.3611
253 1 116.384 2.76176 -73.3611
255 1 119.573 2.76176 -73.3611
257 1 122.762 2.76176 -73.3611
259 1 125.951 2.76176 -73.3611
261 1 129.14 2.76176 -73.3611
263 1 132.329 2.76176 -73.3611
265 1 135.518 2.76176 -73.3611
266 1 -73.3611 5.52351 -73.3611
268 1 -70.1721 5.52351 -73.3611
270 1 -66.9831 5.52351 -73.3611
272 1 -63.7941 5.52351 -73.3611
274 1 -60.6051 5.52351 -73.3611
276 1 -57.4161 5.52351 -73.3611
278 1 -54.2271 5.52351 -73.3611
280 1 -51.0381 5.52351 -73.3611
282 1 -47.8491 5.52351 -73.3611
284 1 -44.6601 5.52351 -73.3611
286 1 -41.4711 5.52351 -73.3611
288 1 -38.2821 5.52351 -73.3611
290 1 -35.0931 5.52351 -73.3611
292 1 -31.9041 5.52351 -73.3611
294 1 -28.7151 5.52351 -73.3611
296 1 -25.5261 5.52351 -73.3611
298 1 -22.3371 5.52351 -73.3611
300 1 -19.1481 5.52351 -73.3611
302 1 -15.9591 5.52351 -73.3611
304 1 -12.7701 5.52351 -73.3611
306 1 -9.58108 5.52351 -73.3611
308 1 -6.39208 5.52351 -73.3611
310 1 -3.20308 5.52351 -73.3611
312 1 -0.0140827 5.52351 -73.3611
314 1 3.17492 5.52351 -73.3611
316 1 6.36392 5.52351 -73.3611
318 1 9.55292 5.52351 -73.3611
320 1 12.7419 5.52351 -73.3611
322 1 15.9309 5.52351 -73.3611
324 1 19.1199 5.52351 -73.3611
326 1 22.3089 5.52351 -73.3611
328 1 25.4979 5.52351 -73.3611
330 1 28.6869 5.52351 -73.3611
332 1 31.8759 5.52351 -73.3611
334 1 35.0649 5.52351 -73.3611
336 1 38.2539 5.52351 -73.3611
338 1 41.4429 5.52351 -73.3611
340 1 44.6319 5.52351 -73.3611
342 1 47.8209 5.52351 -73.3611
344 1 51.0099 5.52351 -73.3611
346 1 54.1989 5.52351 -73.3611
348 1 57.3879 5.52351 -73.3611
350 1 60.5769 5.52351 -73.3611
352 1 63.7659 5.52351 -73.3611
354 1 66.9549 5.52351 -73.3611
356 1 70.1439 5.52351 -73.3611
358 1 73.3329 5.52351 -73.3611
360 1 76.5219 5.52351 -73.3611
362 1 79.7109 5.52351 -73.3611
364 1 82.8999 5.52351 -73.3611
366 1 86.0889 5.52351 -73.3611
368 1 89.2779 5.52351 -73.3611
370 1 92.4669 5.52351 -73.3611
372 1 95.6559 5.52351 -73.3611
374 1 98.8449 5.52351 -73.3611
376 1 102.034 5.52351 -73.3611
378 1 105.223 5.52351 -73.3611
380 1 108.412 5.52351 -73.3611
382 1 111.601 5.52351 -73.3611
384 1 114.79 5.52351 -73.3611
386 1 117.979 5.52351 -73.3611
388 1 121.168 5.52351 -73.3611
390 1 124.357 5.52351 -73.3611
392 1 127.546 5.52351 -73.3611
394 1 130.735 5.52351 -73.3611
396 1 133.924 5.52351 -73.3611
398 1 137.113 5.52351 -73.3611
400 1 -71.7666 8.28527 -73.3611
402 1 -68.5776 8.28527 -73.3611
404 1 -65.3886 8.28527 -73.3611
406 1 -62.1996 8.28527 -73.3611
408 1 -59.0106 8.28527 -73.3611
410 1 -55.8216 8.28527 -73.3611
412 1 -52.6326 8.28527 -73.3611
414 1 -49.4436 8.28527 -73.3611
416 1 -46.2546 8.28527 -73.3611
418 1 -43.0656 8.28527 -73.3611
420 1 -39.8766 8.28527 -73.3611
422 1 -36.6876 8.28527 -73.3611
424 1 -33.4986 8.28527 -73.3611
426 1 -30.3096 8.28527 -73.3611
428 1 -27.1206 8.28527 -73.3611
430 1 -23.9316 8.28527 -73.3611
432 1 -20.7426 8.28527 -73.3611
434 1 -17.5536 8.28527 -73.3611
436 1 -14.3646 8.28527 -73.3611
438 1 -11.1756 8.28527 -73.3611
440 1 -7.98658 8.28527 -73.3611
442 1 -4.79758 8.28527 -73.3611
444 1 -1.60858 8.28527 -73.3611
446 1 1.58042 8.28527 -73.3611
448 1 4.76942 8.28527 -73.3611
450 1 7.95842 8.28527 -73.3611
452 1 11.1474 8.28527 -73.3611
454 1 14.3364 8.28527 -73.3611
456 1 17.5254 8.28527 -73.3611
458 1 20.7144 8.28527 -73.3611
460 1 23.9034 8.28527 -73.3611
462 1 27.0924 8.28527 -73.3611
464 1 30.2814 8.28527 -73.3611
466 1 33.4704 8.28527 -73.3611
468 1 36.6594 8.28527 -73.3611
470 1 39.8484 8.28527 -73.3611
472 1 43.0374 8.28527 -73.3611
474 1 46.2264 8.28527 -73.3611
476 1 49.4154 8.28527 -73.3611
478 1 52.6044 8.28527 -73.3611
480 1 55.7934 8.28527 -73.3611
482 1 58.9824 8.28527 -73.3611
484 1 62.1714 8.28527 -73.3611
486 1 65.3604 8.28527 -73.3611
488 1 68.5494 8.28527 -73.3611
490 1 71.7384 8.28527 -73.3611
492 1 74.9274 8.28527 -73.3611
494 1 78.1164 8.28527 -73.3611
496 1 81.3054 8.28527 -73.3611
498 1 84.4944 8.28527 -73.3611
500 1 87.6834 8.28527 -73.3611
502 1 90.8724 8.28527 -73.3611
504 1 94.0614 8.28527 -73.3611
506 1 97.2504 8.28527 -73.3611
508 1 100.439 8.28527 -73.3611
510 1 103.628 8.28527 -73.3611
512 1 106.817 8.28527 -73.3611
514 1 110.006 8.28527 -73.3611
516 1 113.195 8.28527 -73.3611
518 1 116.384 8.28527 -73.3611
520 1 119.573 8.28527 -73.3611
522 1 122.762 8.28527 -73.3611
524 1 125.951 8.28527 -73.3611
526 1 129.14 8.28527 -73.3611
528 1 132.329 8.28527 -73.3611
530 1 135.518 8.28527 -73.3611
531 1 -73.3611 11.047 -73.3611
533 1 -70.1721 11.047 -73.3611
535 1 -66.9831 11.047 -73.3611
537 1 -63.7941 11.047 -73.3611
539 1 -60.6051 11.047 -73.3611
541 1 -57.4161 11.047 -73.3611
543 1 -54.2271 11.047 -73.3611
545 1 -51.0381 11.047 -73.3611
547 1 -47.8491 11.047 -73.3611
549 1 -44.6601 11.047 -73.3611
551 1 -41.4711 11.047 -73.3611
553 1 -38.2821 11.047 -73.3611
555 1 -35.0931 11.047 -73.3611
557 1 -31.9041 11.047 -73.3611
559 1 -28.7151 11.047 -73.3611
561 1 -25.5261 11.047 -73.3611
563 1 -22.3371 11.047 -73.3611
565 1 -19.1481 11.047 -73.3611
567 1 -15.9591 11.047 -73.3611
569 1 -12.7701 11.047 -73.3611
571 1 -9.58108 11.047 -73.3611
573 1 -6.39208 11.047 -73.3611
575 1 -3.20308 11.047 -73.3611
577 1 -0.0140827 11.047 -73.3611
579 1 3.17492 11.047 -73.3611
581 1 6.36392 11.047 -73.3611
583 1 9.55292 11.047 -73.3611
585 1 12.7419 11.047 -73.3611
587 1 15.9309 11.047 -73.3611
589 1 19.1199 11.047 -73.3611
591 1 22.3089 11.047 -73.3611
593 1 25.4979 11.047 -73.3611
595 1 28.6869 11.047 -73.3611
597 1 31.8759 11.047 -73.3611
599 1 35.0649 11.047 -73.3611
601 1 38.2539 11.047 -73.3611
603 1 41.4429 11.047 -73.3611
605 1 44.6319 11.047 -73.3611
607 1 47.8209 11.047 -73.3611
609 1 51.0099 11.047 -73.3611
611 1 54.1989 11.047 -73.3611
613 1 57.3879 11.047 -73.3611
615 1 60.5769 11.047 -73.3611
617 1 63.7659 11.047 -73.3611
619 1 66.9549 11.047 -73.3611
621 1 70.1439 11.047 -73.3611
623 1 73.3329 11.047 -73.3611
625 1 76.5219 11.047 -73.3611
627 1 79.7109 11.047 -73.3611
629 1 82.8999 11.047 -73.3611
631 1 86.0889 11.047 -73.3611
633 1 89.2779 11.047 -73.3611
635 1 92.4669 11.047 -73.3611
637 1 95.6559 11.047 -73.3611
639 1 98.8449 11.047 -73.3611
641 1 102.034 11.047 -73.3611
643 1 105.223 11.047 -73.3611
645 1 108.412 11.047 -73.3611
647 1 111.601 11.047 -73.3611
649 1 114.79 11.047 -73.3611
651 1 117.979 11.047 -73.3611
653 1 121.168 11.047 -73.3611
655 1 124.357 11.047 -73.3611
657 1 127.546 11.047 -73.3611
659 1 130.735 11.047 -73.3611
661 1 133.924 11.047 -73.3611
663 1 137.113 11.047 -73.3611
665 1 -71.7666 13.8088 -73.3611
667 1 -68.5776 13.8088 -73.3611
669 1 -65.3886 13.8088 -73.3611
671 1 -62.1996 13.8088 -73.3611
673 1 -59.0106 13.8088 -73.3611
675 1 -55.8216 13.8088 -73.3611
677 1 -52.6326 13.8088 -73.3611
679 1 -49.4436 13.8088 -73.3611
681 1 -46.2546 13.8088 -73.3611
683 1 -43.0656 13.8088 -73.3611
685 1 -39.8766 13.8088 -73.3611
687 1 -36.6876 13.8088 -73.3611
689 1 -33.4986 13.8088 -73.3611
691 1 -30.3096 13.8088 -73.3611
693 1 -27.1206 13.8088 -73.3611
695 1 -23.9316 13.8088 -73.3611
697 1 -20.7426 13.8088 -73.3611
699 1 -17.5536 13.8088 -73.3611
701 1 -14.3646 13.8088 -73.3611
703 1 -11.1756 13.8088 -73.3611
705 1 -7.98658 13.8088 -73.3611
707 1 -4.79758 13.8088 -73.3611
709 1 -1.60858 13.8088 -73.3611
711 1 1.58042 13.8088 -73.3611
713 1 4.76942 13.8088 -73.3611
715 1 7.95842 13.8088 -73.3611
717 1 11.1474 13.8088 -73.3611
719 1 14.3364 13.8088 -73.3611
721 1 17.5254 13.8088 -73.3611
723 1 20.7144 13.8088 -73.3611
725 1 23.9034 13.8088 -73.3611
727 1 27.0924 13.8088 -73.3611
729 1 30.2814 13.8088 -73.3611
731 1 33.4704 13.8088 -73.3611
733 1 36.6594 13.8088 -73.3611
735 1 39.8484 13.8088 -73.3611
737 1 43.0374 13.8088 -73.3611
739 1 46.2264 13.8088 -73.3611
741 1 49.4154 13.8088 -73.3611
743 1 52.6044 13.8088 -73.3611
745 1 55.7934 13.8088 -73.3611
747 1 58.9824 13.8088 -73.3611
749 1 62.1714 13.8088 -73.3611
751 1 65.3604 13.8088 -73.3611
753 1 68.5494 13.8088 -73.3611
755 1 71.7384 13.8088 -73.3611
757 1 74.9274 13.8088 -73.3611
759 1 78.1164 13.8088 -73.3611
761 1 81.3054 13.8088 -73.3611
763 1 84.4944 13.8088 -73.3611
765 1 87.6834 13.8088 -73.3611
767 1 90.8724 13.8088 -73.3611
769 1 94.0614 13.8088 -73.3611
771 1 97.2504 13.8088 -73.3611
773 1 100.439 13.8088 -73.3611
775 1 103.628 13.8088 -73.3611
777 1 106.817 13.8088 -73.3611
779 1 110.006 13.8088 -73.3611
781 1 113.195 13.8088 -73.3611
783 1 116.384 13.8088 -73.3611
785 1 119.573 13.8088 -73.3611
787 1 122.762 13.8088 -73.3611
789 1 125.951 13.8088 -73.3611
791 1 129.14 13.8088 -73.3611
793 1 132.329 13.8088 -73.3611
795 1 135.518 13.8088 -73.3611
796 1 -73.3611 16.5705 -73.3611
798 1 -70.1721 16.5705 -73.3611
800 1 -66.9831 16.5705 -73.3611
802 1 -63.7941 16.5705 -73.3611
804 1 -60.6051 16.5705 -73.3611
806 1 -57.4161 16.5705 -73.3611
808 1 -54.2271 16.5705 -73.3611
810 1 -51.0381 16.5705 -73.3611
812 1 -47.8491 16.5705 -73.3611
814 1 -44.6601 16.5705 -73.3611
816 1 -41.4711 16.5705 -73.3611
818 1 -38.2821 16.5705 -73.3611
820 1 -35.0931 16.5705 -73.3611
822 1 -31.9041 16.5705 -73.3611
824 1 -28.7151 16.5705 -73.3611
826 1 -25.5261 16.5705 -73.3611
828 1 -22.3371 16.5705 -73.3611
830 1 -19.1481 16.5705 -73.3611
832 1 -15.9591 16.5705 -73.3611
834 1 -12.7701 16.5705 -73.3611
836 1 -9.58108 16.5705 -73.3611
838 1 -6.39208 16.5705 -73.3611
840 1 -3.20308 16.5705 -73.3611
842 1 -0.0140827 16.5705 -73.3611
844 1 3.17492 16.5705 -73.3611
846 1 6.36392 16.5705 -73.3611
848 1 9.55292 16.5705 -73.3611
850 1 12.7419 16.5705 -73.3611
852 1 15.9309 16.5705 -73.3611
854 1 19.1199 16.5705 -73.3611
856 1 22.3089 16.5705 -73.3611
858 1 25.4979 16.5705 -73.3611
860 1 28.6869 16.5705 -73.3611
862 1 31.8759 16.5705 -73.3611
864 1 35.0649 16.5705 -73.3611
866 1 38.2539 16.5705 -73.3611
868 1 41.4429 16.5705 -73.3611
870 1 44.6319 16.5705 -73.3611
872 1 47.8209 16.5705 -73.3611
874 1 51.0099 16.5705 -73.3611
876 1 54.1989 16.5705 -73.3611
878 1 57.3879 16.5705 -73.3611
880 1 60.5769 16.5705 -73.3611
882 1 63.7659 16.5705 -73.3611
884 1 66.9549 16.5705 -73.3611
886 1 70.1439 16.5705 -73.3611
888 1 73.3329 16.5705 -73.3611
890 1 76.5219 16.5705 -73.3611
892 1 79.7109 16.5705 -73.3611
894 1 82.8999 16.5705 -73.3611
896 1 86.0889 16.5705 -73.3611
898 1 89.2779 16.5705 -73.3611
900 1 92.4669 16.5705 -73.3611
902 1 95.6559 16.5705 -73.3611
904 1 98.8449 16.5705 -73.3611
906 1 102.034 16.5705 -73.3611
908 1 105.223 16.5705 -73.3611
910 1 108.412 16.5705 -73.3611
912 1 111.601 16.5705 -73.3611
914 1 114.79 16.5705 -73.3611
916 1 117.979 16.5705 -73.3611
918 1 121.168 16.5705 -73.3611
920 1 124.357 16.5705 -73.3611
922 1 127.546 16.5705 -73.3611
924 1 130.735 16.5705 -73.3611
926 1 133.924 16.5705 -73.3611
928 1 137.113 16.5705 -73.3611
930 1 -71.7666 19.3323 -73.3611
932 1 -68.5776 19.3323 -73.3611
934 1 -65.3886 19.3323 -73.3611
936 1 -62.1996 19.3323 -73.3611
938 1 -59.0106 19.3323 -73.3611
940 1 -55.8216 19.3323 -73.3611
942 1 -52.6326 19.3323 -73.3611
944 1 -49.4436 19.3323 -73.3611
946 1 -46.2546 19.3323 -73.3611
948 1 -43.0656 19.3323 -73.3611
950 1 -39.8766 19.3323 -73.3611
952 1 -36.6876 19.3323 -73.3611
954 1 -33.4986 19.3323 -73.3611
956 1 -30.3096 19.3323 -73.3611
958 1 -27.1206 19.3323 -73.3611
960 1 -23.9316 19.3323 -73.3611
962 1 -20.7426 19.3323 -73.3611
964 1 -17.5536 19.3323 -73.3611
966 1 -14.3646 19.3323 -73.3611
968 1 -11.1756 19.3323 -73.3611
970 1 -7.98658 19.3323 -73.3611
972 1 -4.79758 19.3323 -73.3611
974 1 -1.60858 19.3323 -73.3611
976 1 1.58042 19.3323 -73.3611
978 1 4.76942 19.3323 -73.3611
980 1 7.95842 19.3323 -73.3611
982 1 11.1474 19.3323 -73.3611
984 1 14.3364 19.3323 -73.3611
986 1 17.5254 19.3323 -73.3611
988 1 20.7144 19.3323 -73.3611
990 1 23.9034 19.3323 -73.3611
992 1 27.0924 19.3323 -73.3611
994 1 30.2814 19.3323 -73.3611
996 1 33.4704 19.3323 -73.3611
998 1 36.6594 19.3323 -73.3611
1000 1 39.8484 19.3323 -73.3611
1002 1 43.0374 19.3323 -73.3611
1004 1 46.2264 19.3323 -73.3611
1006 1 49.4154 19.3323 -73.3611
1008 1 52.6044 19.3323 -73.3611
1010 1 55.7934 19.3323 -73.3611
1012 1 58.9824 19.3323 -73.3611
1014 1 62.1714 19.3323 -73.3611
1016 1 65.3604 19.3323 -73.3611
1018 1 68.5494 19.3323 -73.3611
1020 1 71.7384 19.3323 -73.3611
1022 1 74.9274 19.3323 -73.3611
1024 1 78.1164 19.3323 -73.3611
1026 1 81.3054 19.3323 -73.3611
1028 1 84.4944 19.3323 -73.3611
1030 1 87.6834 19.3323 -73.3611
1032 1 90.8724 19.3323 -73.3611
1034 1 94.0614 19.3323 -73.3611
1036 1 97.2504 19.3323 -73.3611
1038 1 100.439 19.3323 -73.3611
1040 1 103.628 19.3323 -73.3611
1042 1 106.817 19.3323 -73.3611
1044 1 110.006 19.3323 -73.3611
1046 1 113.195 19.3323 -73.3611
1048 1 116.384 19.3323 -73.3611
1050 1 119.573 19.3323 -73.3611
1052 1 122.762 19.3323 -73.3611
1054 1 125.951 19.3323 -73.3611
1056 1 129.14 19.3323 -73.3611
1058 1 132.329 19.3323 -73.3611
1060 1 135.518 19.3323 -73.3611
1061 1 -73.3611 22.094 -73.3611
1063 1 -70.1721 22.094 -73.3611
1065 1 -66.9831 22.094 -73.3611
1067 1 -63.7941 22.094 -73.3611
1069 1 -60.6051 22.094 -73.3611
1071 1 -57.4161 22.094 -73.3611
1073 1 -54.2271 22.094 -73.3611
1075 1 -51.0381 22.094 -73.3611
1077 1 -47.8491 22.094 -73.3611
1079 1 -44.6601 22.094 -73.3611
1081 1 -41.4711 22.094 -73.3611
1083 1 -38.2821 22.094 -73.3611
1085 1 -35.0931 22.094 -73.3611
1087 1 -31.9041 22.094 -73.3611
1089 1 -28.7151 22.094 -73.3611
1091 1 -25.5261 22.094 -73.3611
1093 1 -22.3371 22.094 -73.3611
1095 1 -19.1481 22.094 -73.3611
1097 1 -15.9591 22.094 -73.3611
1099 1 -12.7701 22.094 -73.3611
1101 1 -9.58108 22.094 -73.3611
1103 1 -6.39208 22.094 -73.3611
1105 1 -3.20308 22.094 -73.3611
1107 1 -0.0140827 22.094 -73.3611
1109 1 3.17492 22.094 -73.3611
1111 1 6.36392 22.094 -73.3611
1113 1 9.55292 22.094 -73.3611
1115 1 12.7419 22.094 -73.3611
1117 1 15.9309 22.094 -73.3611
1119 1 19.1199 22.094 -73.3611
1121 1 22.3089 22.094 -73.3611
1123 1 25.4979 22.094 -73.3611
1125 1 28.6869 22.094 -73.3611
1127 1 31.8759 22.094 -73.3611
1129 1 35.0649 22.094 -73.3611
1131 1 38.2539 22.094 -73.3611
1133 1 41.4429 22.094 -73.3611
1135 1 44.6319 22.094 -73.3611
1137 1 47.8209 22.094 -73.3611
1139 1 51.0099 22.094 -73.3611
1141 1 54.1989 22.094 -73.3611
1143 1 57.3879 22.094 -73.3611
1145 1 60.5769 22.094 -73.3611
1147 1 63.7659 22.094 -73.3611
1149 1 66.9549 22.094 -73.3611
1151 1 70.1439 22.094 -73.3611
1153 1 73.3329 22.094 -73.3611
1155 1 76.5219 22.094 -73.3611
1157 1 79.7109 22.094 -73.3611
1159 1 82.8999 22.094 -73.3611
1161 1 86.0889 22.094 -73.3611
1163 1 89.2779 22.094 -73.3611
1165 1 92.4669 22.094 -73.3611
1167 1 95.6559 22.094 -73.3611
1169 1 98.8449 22.094 -73.3611
1171 1 102.034 22.094 -73.3611
1173 1 105.223 22.094 -73.3611
1175 1 108.412 22.094 -73.3611
1177 1 111.601 22.094 -73.3611
1179 1 114.79 22.094 -73.3611
1181 1 117.979 22.094 -73.3611
1183 1 121.168 22.094 -73.3611
1185 1 124.357 22.094 -73.3611
1187 1 127.546 22.094 -73.3611
1189 1 130.735 22.094 -73.3611
1191 1 133.924 22.094 -73.3611
1193 1 137.113 22.094 -73.3611
1195 1 -71.7666 24.8558 -73.3611
1197 1 -68.5776 24.8558 -73.3611
1199 1 -65.3886 24.8558 -73.3611
1201 1 -62.1996 24.8558 -73.3611
1203 1 -59.0106 24.8558 -73.3611
1205 1 -55.8216 24.8558 -73.3611
1207 1 -52.6326 24.8558 -73.3611
1209 1 -49.4436 24.8558 -73.3611
1211 1 -46.2546 24.8558 -73.3611
1213 1 -43.0656 24.8558 -73.3611
1215 1 -39.8766 24.8558 -73.3611
1217 1 -36.6876 24.8558 -73.3611
1219 1 -33.4986 24.8558 -73.3611
1221 1 -30.3096 24.8558 -73.3611
1223 1 -27.1206 24.8558 -73.3611
1225 1 -23.9316 24.8558 -73.3611
1227 1 -20.7426 24.8558 -73.3611
1229 1 -17.5536 24.8558 -73.3611
1231 1 -14.3646 24.8558 -73.3611
1233 1 -11.1756 24.8558 -73.3611
1235 1 -7.98658 24.8558 -73.3611
1237 1 -4.79758 24.8558 -73.3611
1239 1 -1.60858 24.8558 -73.3611
1241 1 1.58042 24.8558 -73.3611
1243 1 4.76942 24.8558 -73.3611
1245 1 7.95842 24.8558 -73.3611
1247 1 11.1474 24.8558 -73.3611
1249 1 14.3364 24.8558 -73.3611
1251 1 17.5254 24.8558 -73.3611
1253 1 20.7144 24.8558 -73.3611
1255 1 23.9034 24.8558 -73.3611
1257 1 27.0924 24.8558 -73.3611
1259 1 30.2814 24.8558 -73.3611
1261 1 33.4704 24.8558 -73.3611
1263 1 36.6594 24.8558 -73.3611
1265 1 39.8484 24.8558 -73.3611
1267 1 43.0374 24.8558 -73.3611
1269 1 46.2264 24.8558 -73.3611
1271 1 49.4154 24.8558 -73.3611
1273 1 52.6044 24.8558 -73.3611
1275 1 55.7934 24.8558 -73.3611
1277 1 58.9824 24.8558 -73.3611
1279 1 62.1714 24.8558 -73.3611
1281 1 65.3604 24.8558 -73.3611
1283 1 68.5494 24.8558 -73.3611
1285 1 71.7384 24.8558 -73.3611
1287 1 74.9274 24.8558 -73.3611
1289 1 78.1164 24.8558 -73.3611
1291 1 81.3054 24.8558 -73.3611
1293 1 84.4944 24.8558 -73.3611
1295 1 87.6834 24.8558 -73.3611
1297 1 90.8724 24.8558 -73.3611
1299 1 94.0614 24.8558 -73.3611
1301 1 97.2504 24.8558 -73.3611
1303 1 100.439 24.8558 -73.3611
1305 1 103.628 24.8558 -73.3611
1307 1 106.817 24.8558 -73.3611
1309 1 110.006 24.8558 -73.3611
1311 1 113.195 24.8558 -73.3611
1313 1 116.384 24.8558 -73.3611
1315 1 119.573 24.8558 -73.3611
1317 1 122.762 24.8558 -73.3611
1319 1 125.951 24.8558 -73.3611
1321 1 129.14 24.8558 -73.3611
1323 1 132.329 24.8558 -73.3611
1325 1 135.518 24.8558 -73.3611
1326 1 -73.3611 27.6176 -73.3611
1328 1 -70.1721 27.6176 -73.3611
1330 1 -66.9831 27.6176 -73.3611
1332 1 -63.7941 27.6176 -73.3611
1334 1 -60.6051 27.6176 -73.3611
1336 1 -57.4161 27.6176 -73.3611
1338 1 -54.2271 27.6176 -73.3611
1340 1 -51.0381 27.6176 -73.3611
1342 1 -47.8491 27.6176 -73.3611
1344 1 -44.6601 27.6176 -73.3611
1346 1 -41.4711 27.6176 -73.3611
1348 1 -38.2821 27.6176 -73.3611
1350 1 -35.0931 27.6176 -73.3611
1352 1 -31.9041 27.6176 -73.3611
1354 1 -28.7151 27.6176 -73.3611
1356 1 -25.5261 27.6176 -73.3611
1358 1 -22.3371 27.6176 -73.3611
1360 1 -19.1481 27.6176 -73.3611
1362 1 -15.9591 27.6176 -73.3611
1364 1 -12.7701 27.6176 -73.3611
1366 1 -9.58108 27.6176 -73.3611
1368 1 -6.39208 27.6176 -73.3611
1370 1 -3.20308 27.6176 -73.3611
1372 1 -0.0140827 27.6176 -73.3611
1374 1 3.17492 27.6176 -73.3611
1376 1 6.36392 27.6176 -73.3611
1378 1 9.55292 27.6176 -73.3611
1380 1 12.7419 27.6176 -73.3611
1382 1 15.9309 27.6176 -73.3611
1384 1 19.1199 27.6176 -73.3611
1386 1 22.3089 27.6176 -73.3611
1388 1 25.4979 27.6176 -73.3611
1390 1 28.6869 27.6176 -73.3611
1392 1 31.8759 27.6176 -73.3611
1394 1 35.0649 27.6176 -73.3611
1396 1 38.2539 27.6176 -73.3611
1398 1 41.4429 27.6176 -73.3611
1400 1 44.6319 27.6176 -73.3611
1402 1 47.8209 27.6176 -73.3611
1404 1 51.0099 27.6176 -73.3611
1406 1 54.1989 27.6176 -73.3611
1408 1 57.3879 27.6176 -73.3611
1410 1 60.5769 27.6176 -73.3611
1412 1 63.7659 27.6176 -73.3611
1414 1 66.9549 27.6176 -73.3611
1416 1 70.1439 27.6176 -73.3611
1418 1 73.3329 27.6176 -73.3611
1420 1 76.5219 27.6176 -73.3611
1422 1 79.7109 27.6176 -73.3611
1424 1 82.8999 27.6176 -73.3611
1426 1 86.0889 27.6176 -73.3611
1428 1 89.2779 27.6176 -73.3611
1430 1 92.4669 27.6176 -73.3611
1432 1 95.6559 27.6176 -73.3611
1434 1 98.8449 27.6176 -73.3611
1436 1 102.034 27.6176 -73.3611
1438 1 105.223 27.6176 -73.3611
1440 1 108.412 27.6176 -73.3611
1442 1 111.601 27.6176 -73.3611
1444 1 114.79 27.6176 -73.3611
1446 1 117.979 27.6176 -73.3611
1448 1 121.168 27.6176 -73.3611
1450 1 124.357 27.6176 -73.3611
1452 1 127.546 27.6176 -73.3611
1454 1 130.735 27.6176 -73.3611
1456 1 133.924 27.6176 -73.3611
1458 1 137.113 27.6176 -73.3611
1460 1 -71.7666 30.3793 -73.3611
1462 1 -68.5776 30.3793 -73.3611
1464 1 -65.3886 30.3793 -73.3611
1466 1 -62.1996 30.3793 -73.3611
1468 1 -59.0106 30.3793 -73.3611
1470 1 -55.8216 30.3793 -73.3611
1472 1 -52.6326 30.3793 -73.3611
1474 1 -49.4436 30.3793 -73.3611
1476 1 -46.2546 30.3793 -73.3611
1478 1 -43.0656 30.3793 -73.3611
1480 1 -39.8766 30.3793 -73.3611
1482 1 -36.6876 30.3793 -73.3611
1484 1 -33.4986 30.3793 -73.3611
1486 1 -30.3096 30.3793 -73.3611
1488 1 -27.1206 30.3793 -73.3611
1490 1 -23.9316 30.3793 -73.3611
1492 1 -20.7426 30.3793 -73.3611
1494 1 -17.5536 30.3793 -73.3611
1496 1 -14.3646 30.3793 -73.3611
1498 1 -11.1756 30.3793 -73.3611
1500 1 -7.98658 30.3793 -73.3611
1502 1 -4.79758 30.3793 -73.3611
1504 1 -1.60858 30.3793 -73.3611
1506 1 1.58042 30.3793 -73.3611
1508 1 4.76942 30.3793 -73.3611
1510 1 7.95842 30.3793 -73.3611
1512 1 11.1474 30.3793 -73.3611
1514 1 14.3364 30.3793 -73.3611
1516 1 17.5254 30.3793 -73.3611
1518 1 20.7144 30.3793 -73.3611
1520 1 23.9034 30.3793 -73.3611
1522 1 27.0924 30.3793 -73.3611
1524 1 30.2814 30.3793 -73.3611
1526 1 33.4704 30.3793 -73.3611
1528 1 36.6594 30.3793 -73.3611
1530 1 39.8484 30.3793 -73.3611
1532 1 43.0374 30.3793 -73.3611
1534 1 46.2264 30.3793 -73.3611
1536 1 49.4154 30.3793 -73.3611
1538 1 52.6044 30.3793 -73.3611
1540 1 55.7934 30.3793 -73.3611
1542 1 58.9824 30.3793 -73.3611
1544 1 62.1714 30.3793 -73.3611
1546 1 65.3604 30.3793 -73.3611
1548 1 68.5494 30.3793 -73.3611
1550 1 71.7384 30.3793 -73.3611
1552 1 74.9274 30.3793 -73.3611
1554 1 78.1164 30.3793 -73.3611
1556 1 81.3054 30.3793 -73.3611
1558 1 84.4944 30.3793 -73.3611
1560 1 87.6834 30.3793 -73.3611
1562 1 90.8724 30.3793 -73.3611
1564 1 94.0614 30.3793 -73.3611
1566 1 97.2504 30.3793 -73.3611
1568 1 100.439 30.3793 -73.3611
1570 1 103.628 30.3793 -73.3611
1572 1 106.817 30.3793 -73.3611
1574 1 110.006 30.3793 -73.3611
1576 1 113.195 30.3793 -73.3611
1578 1 116.384 30.3793 -73.3611
1580 1 119.573 30.3793 -73.3611
1582 1 122.762 30.3793 -73.3611
1584 1 125.951 30.3793 -73.3611
1586 1 129.14 30.3793 -73.3611
1588 1 132.329 30.3793 -73.3611
1590 1 135.518 30.3793 -73.3611
1591 1 -73.3611 33.1411 -73.3611
1592 1 -70.1721 33.1411 -73.3611
1593 1 -66.9831 33.1411 -73.3611
1594 1 -63.7941 33.1411 -73.3611
1595 1 -60.6051 33.1411 -73.3611
1596 1 -57.4161 33.1411 -73.3611
1597 1 -54.2271 33.1411 -73.3611
1598 1 -51.0381 33.1411 -73.3611
1599 1 -47.8491 33.1411 -73.3611
1600 1 -44.6601 33.1411 -73.3611
1601 1 -41.4711 33.1411 -73.3611
1602 1 -38.2821 33.1411 -73.3611
1603 1 -35.0931 33.1411 -73.3611
1604 1 -31.9041 33.1411 -73.3611
1605 1 -28.7151 33.1411 -73.3611
1606 1 -25.5261 33.1411 -73.3611
1607 1 -22.3371 33.1411 -73.3611
1608 1 -19.1481 33.1411 -73.3611
1609 1 -15.9591 33.1411 -73.3611
1610 1 -12.7701 33.1411 -73.3611
1611 1 -9.58108 33.1411 -73.3611
1612 1 -6.39208 33.1411 -73.3611
1613 1 -3.20308 33.1411 -73.3611
1614 1 -0.0140827 33.1411 -73.3611
1615 1 3.17492 33.1411 -73.3611
1616 1 6.36392 33.1411 -73.3611
1617 1 9.55292 33.1411 -73.3611
1618 1 12.7419 33.1411 -73.3611
1619 1 15.9309 33.1411 -73.3611
1620 1 19.1199 33.1411 -73.3611
1621 1 22.3089 33.1411 -73.3611
1622 1 25.4979 33.1411 -73.3611
1623 1 28.6869 33.1411 -73.3611
1624 1 31.8759 33.1411 -73.3611
1625 1 35.0649 33.1411 -73.3611
1626 1 38.2539 33.1411 -73.3611
1627 1 41.4429 33.1411 -73.3611
1628 1 44.6319 33.1411 -73.3611
1629 1 47.8209 33.1411 -73.3611
1630 1 51.0099 33.1411 -73.3611
1631 1 54.1989 33.1411 -73.3611
1632 1 57.3879 33.1411 -73.3611
1633 1 60.5769 33.1411 -73.3611
1634 1 63.7659 33.1411 -73.3611
1635 1 66.9549 33.1411 -73.3611
1636 1 70.1439 33.1411 -73.3611
1637 1 73.3329 33.1411 -73.3611
1638 1 76.5219 33.1411 -73.3611
1639 1 79.7109 33.1411 -73.3611
1640 1 82.8999 33.1411 -73.3611
1641 1 86.0889 33.1411 -73.3611
1642 1 89.2779 33.1411 -73.3611
1643 1 92.4669 33.1411 -73.3611
1644 1 95.6559 33.1411 -73.3611
1645 1 98.8449 33.1411 -73.3611
1646 1 102.034 33.1411 -73.3611
1647 1 105.223 33.1411 -73.3611
1648 1 108.412 33.1411 -73.3611
1649 1 111.601 33.1411 -73.3611
1650 1 114.79 33.1411 -73.3611
1651 1 117.979 33.1411 -73.3611
1652 1 121.168 33.1411 -73.3611
1653 1 124.357 33.1411 -73.3611
1654 1 127.546 33.1411 -73.3611
1655 1 130.735 33.1411 -73.3611
1656 1 133.924 33.1411 -73.3611
1657 1 137.113 33.1411 -73.3611
2 1 -71.7986 1.01668 -65.0764
4 1 -68.6096 1.01668 -65.0764
6 1 -65.4206 1.01668 -65.0764
8 1 -62.2316 1.01668 -65.0764
10 1 -59.0426 1.01668 -65.0764
12 1 -55.8536 1.01668 -65.0764
14 1 -52.6646 1.01668 -65.0764
16 1 -49.4756 1.01668 -65.0764
18 1 -46.2866 1.01668 -65.0764
20 1 -43.0976 1.01668 -65.0764
22 1 -39.9086 1.01668 -65.0764
24 1 -36.7196 1.01668 -65.0764
26 1 -33.5306 1.01668 -65.0764
28 1 -30.3416 1.01668 -65.0764
30 1 -27.1526 1.01668 -65.0764
32 1 -23.9636 1.01668 -65.0764
34 1 -20.7746 1.01668 -65.0764
36 1 -17.5856 1.01668 -65.0764
38 1 -14.3966 1.01668 -65.0764
40 1 -11.2076 1.01668 -65.0764
42 1 -8.01858 1.01668 -65.0764
44 1 -4.82958 1.01668 -65.0764
46 1 -1.64058 1.01668 -65.0764
48 1 1.54842 1.01668 -65.0764
50 1 4.73742 1.01668 -65.0764
52 1 7.92642 1.01668 -65.0764
54 1 11.1154 1.01668 -65.0764
56 1 14.3044 1.01668 -65.0764
58 1 17.4934 1.01668 -65.0764
60 1 20.6824 1.01668 -65.0764
62 1 23.8714 1.01668 -65.0764
64 1 27.0604 1.01668 -65.0764
66 1 30.2494 1.01668 -65.0764
68 1 33.4384 1.01668 -65.0764
70 1 36.6274 1.01668 -65.0764
72 1 39.8164 1.01668 -65.0764
74 1 43.0054 1.01668 -65.0764
76 1 46.1944 1.01668 -65.0764
78 1 49.3834 1.01668 -65.0764
80 1 52.5724 1.01668 -65.0764
82 1 55.7614 1.01668 -65.0764
84 1 58.9504 1.01668 -65.0764
86 1 62.1394 1.01668 -65.0764
88 1 65.3284 1.01668 -65.0764
90 1 68.5174 1.01668 -65.0764
92 1 71.7064 1.01668 -65.0764
94 1 74.8954 1.01668 -65.0764
96 1 78.0844 1.01668 -65.0764
98 1 81.2734 1.01668 -65.0764
100 1 84.4624 1.01668 -65.0764
102 1 87.6514 1.01668 -65.0764
104 1 90.8404 1.01668 -65.0764
106 1 94.0294 1.01668 -65.0764
108 1 97.2184 1.01668 -65.0764
110 1 100.407 1.01668 -65.0764
112 1 103.596 1.01668 -65.0764
114 1 106.785 1.01668 -65.0764
116 1 109.974 1.01668 -65.0764
118 1 113.163 1.01668 -65.0764
120 1 116.352 1.01668 -65.0764
122 1 119.541 1.01668 -65.0764
124 1 122.73 1.01668 -65.0764
126 1 125.919 1.01668 -65.0764
128 1 129.108 1.01668 -65.0764
130 1 132.297 1.01668 -65.0764
132 1 135.486 1.01668 -65.0764
134 1 -73.3609 3.68225 -65.0936
136 1 -70.2041 3.77843 -65.0764
138 1 -67.0151 3.77843 -65.0764
140 1 -63.8261 3.77843 -65.0764
142 1 -60.6371 3.77843 -65.0764
144 1 -57.4481 3.77843 -65.0764
146 1 -54.2591 3.77843 -65.0764
148 1 -51.0701 3.77843 -65.0764
150 1 -47.8811 3.77843 -65.0764
152 1 -44.6921 3.77843 -65.0764
154 1 -41.5031 3.77843 -65.0764
156 1 -38.3141 3.77843 -65.0764
158 1 -35.1251 3.77843 -65.0764
160 1 -31.9361 3.77843 -65.0764
162 1 -28.7471 3.77843 -65.0764
164 1 -25.5581 3.77843 -65.0764
166 1 -22.3691 3.77843 -65.0764
168 1 -19.1801 3.77843 -65.0764
170 1 -15.9911 3.77843 -65.0764
172 1 -12.8021 3.77843 -65.0764
174 1 -9.61308 3.77843 -65.0764
176 1 -6.42408 3.77843 -65.0764
178 1 -3.23508 3.77843 -65.0764
180 1 -0.0460766 3.77843 -65.0764
182 1 3.14292 3.77843 -65.0764
184 1 6.33192 3.77843 -65.0764