ITEM: TIMESTEP
18500
ITEM: NUMBER OF ATOMS
14121
ITEM: BOX BOUNDS ss ss ss
-7.9712667293627391e+01 6.0717803300046933e+02
-1.0231754111503553e+00 5.7405469567116718e+01
-7.9698230992944588e+01 4.6067715149751587e+02
ITEM: ATOMS id type x y z
1 1 -79.762 0 -79.762
3 1 -76.573 0 -79.762
5 1 -73.384 0 -79.762
7 1 -70.195 0 -79.762
9 1 -67.006 0 -79.762
11 1 -63.817 0 -79.762
13 1 -60.628 0 -79.762
15 1 -57.439 0 -79.762
17 1 -54.25 0 -79.762
19 1 -51.061 0 -79.762
21 1 -47.872 0 -79.762
23 1 -44.683 0 -79.762
25 1 -41.494 0 -79.762
27 1 -38.305 0 -79.762
29 1 -35.116 0 -79.762
31 1 -31.927 0 -79.762
33 1 -28.738 0 -79.762
35 1 -25.549 0 -79.762
37 1 -22.36 0 -79.762
39 1 -19.171 0 -79.762
41 1 -15.982 0 -79.762
43 1 -12.793 0 -79.762
45 1 -9.60403 0 -79.762
47 1 -6.41503 0 -79.762
49 1 -3.22603 0 -79.762
51 1 -0.0370261 0 -79.762
53 1 3.15197 0 -79.762
55 1 6.34097 0 -79.762
57 1 9.52997 0 -79.762
59 1 12.719 0 -79.762
61 1 15.908 0 -79.762
63 1 19.097 0 -79.762
65 1 22.286 0 -79.762
67 1 25.475 0 -79.762
69 1 28.664 0 -79.762
71 1 31.853 0 -79.762
73 1 35.042 0 -79.762
75 1 38.231 0 -79.762
77 1 41.42 0 -79.762
79 1 44.609 0 -79.762
81 1 47.798 0 -79.762
83 1 50.987 0 -79.762
85 1 54.176 0 -79.762
87 1 57.365 0 -79.762
89 1 60.554 0 -79.762
91 1 63.743 0 -79.762
93 1 66.932 0 -79.762
95 1 70.121 0 -79.762
97 1 73.31 0 -79.762
99 1 76.499 0 -79.762
101 1 79.688 0 -79.762
103 1 82.877 0 -79.762
105 1 86.066 0 -79.762
107 1 89.255 0 -79.762
109 1 92.444 0 -79.762
111 1 95.633 0 -79.762
113 1 98.822 0 -79.762
115 1 102.011 0 -79.762
117 1 105.2 0 -79.762
119 1 108.389 0 -79.762
121 1 111.578 0 -79.762
123 1 114.767 0 -79.762
125 1 117.956 0 -79.762
127 1 121.145 0 -79.762
129 1 124.334 0 -79.762
131 1 127.523 0 -79.762
133 1 130.712 0 -79.762
135 1 -78.1675 2.76176 -79.762
137 1 -74.9785 2.76176 -79.762
139 1 -71.7895 2.76176 -79.762
141 1 -68.6005 2.76176 -79.762
143 1 -65.4115 2.76176 -79.762
145 1 -62.2225 2.76176 -79.762
147 1 -59.0335 2.76176 -79.762
149 1 -55.8445 2.76176 -79.762
151 1 -52.6555 2.76176 -79.762
153 1 -49.4665 2.76176 -79.762
155 1 -46.2775 2.76176 -79.762
157 1 -43.0885 2.76176 -79.762
159 1 -39.8995 2.76176 -79.762
161 1 -36.7105 2.76176 -79.762
163 1 -33.5215 2.76176 -79.762
165 1 -30.3325 2.76176 -79.762
167 1 -27.1435 2.76176 -79.762
169 1 -23.9545 2.76176 -79.762
171 1 -20.7655 2.76176 -79.762
173 1 -17.5765 2.76176 -79.762
175 1 -14.3875 2.76176 -79.762
177 1 -11.1985 2.76176 -79.762
179 1 -8.00953 2.76176 -79.762
181 1 -4.82053 2.76176 -79.762
183 1 -1.63153 2.76176 -79.762
185 1 1.55747 2.76176 -79.762
187 1 4.74647 2.76176 -79.762
189 1 7.93547 2.76176 -79.762
191 1 11.1245 2.76176 -79.762
193 1 14.3135 2.76176 -79.762
195 1 17.5025 2.76176 -79.762
197 1 20.6915 2.76176 -79.762
199 1 23.8805 2.76176 -79.762
201 1 27.0695 2.76176 -79.762
203 1 30.2585 2.76176 -79.762
205 1 33.4475 2.76176 -79.762
207 1 36.6365 2.76176 -79.762
209 1 39.8255 2.76176 -79.762
211 1 43.0145 2.76176 -79.762
213 1 46.2035 2.76176 -79.762
215 1 49.3925 2.76176 -79.762
217 1 52.5815 2.76176 -79.762
219 1 55.7705 2.76176 -79.762
221 1 58.9595 2.76176 -79.762
223 1 62.1485 2.76176 -79.762
225 1 65.3375 2.76176 -79.762
227 1 68.5265 2.76176 -79.762
229 1 71.7155 2.76176 -79.762
231 1 74.9045 2.76176 -79.762
233 1 78.0935 2.76176 -79.762
235 1 81.2825 2.76176 -79.762
237 1 84.4715 2.76176 -79.762
239 1 87.6605 2.76176 -79.762
241 1 90.8495 2.76176 -79.762
243 1 94.0385 2.76176 -79.762
245 1 97.2275 2.76176 -79.762
247 1 100.416 2.76176 -79.762
249 1 103.605 2.76176 -79.762
251 1 106.794 2.76176 -79.762
253 1 109.983 2.76176 -79.762
255 1 113.172 2.76176 -79.762
257 1 116.361 2.76176 -79.762
259 1 119.55 2.76176 -79.762
261 1 122.739 2.76176 -79.762
263 1 125.928 2.76176 -79.762
265 1 129.117 2.76176 -79.762
266 1 -79.762 5.52351 -79.762
268 1 -76.573 5.52351 -79.762
270 1 -73.384 5.52351 -79.762
272 1 -70.195 5.52351 -79.762
274 1 -67.006 5.52351 -79.762
276 1 -63.817 5.52351 -79.762
278 1 -60.628 5.52351 -79.762
280 1 -57.439 5.52351 -79.762
282 1 -54.25 5.52351 -79.762
284 1 -51.061 5.52351 -79.762
286 1 -47.872 5.52351 -79.762
288 1 -44.683 5.52351 -79.762
290 1 -41.494 5.52351 -79.762
292 1 -38.305 5.52351 -79.762
294 1 -35.116 5.52351 -79.762
296 1 -31.927 5.52351 -79.762
298 1 -28.738 5.52351 -79.762
300 1 -25.549 5.52351 -79.762
302 1 -22.36 5.52351 -79.762
304 1 -19.171 5.52351 -79.762
306 1 -15.982 5.52351 -79.762
308 1 -12.793 5.52351 -79.762
310 1 -9.60403 5.52351 -79.762
312 1 -6.41503 5.52351 -79.762
314 1 -3.22603 5.52351 -79.762
316 1 -0.0370261 5.52351 -79.762
318 1 3.15197 5.52351 -79.762
320 1 6.34097 5.52351 -79.762
322 1 9.52997 5.52351 -79.762
324 1 12.719 5.52351 -79.762
326 1 15.908 5.52351 -79.762
328 1 19.097 5.52351 -79.762
330 1 22.286 5.52351 -79.762
332 1 25.475 5.52351 -79.762
334 1 28.664 5.52351 -79.762
336 1 31.853 5.52351 -79.762
338 1 35.042 5.52351 -79.762
340 1 38.231 5.52351 -79.762
342 1 41.42 5.52351 -79.762
344 1 44.609 5.52351 -79.762
346 1 47.798 5.52351 -79.762
348 1 50.987 5.52351 -79.762
350 1 54.176 5.52351 -79.762
352 1 57.365 5.52351 -79.762
354 1 60.554 5.52351 -79.762
356 1 63.743 5.52351 -79.762
358 1 66.932 5.52351 -79.762
360 1 70.121 5.52351 -79.762
362 1 73.31 5.52351 -79.762
364 1 76.499 5.52351 -79.762
366 1 79.688 5.52351 -79.762
368 1 82.877 5.52351 -79.762
370 1 86.066 5.52351 -79.762
372 1 89.255 5.52351 -79.762
374 1 92.444 5.52351 -79.762
376 1 95.633 5.52351 -79.762
378 1 98.822 5.52351 -79.762
380 1 102.011 5.52351 -79.762
382 1 105.2 5.52351 -79.762
384 1 108.389 5.52351 -79.762
386 1 111.578 5.52351 -79.762
388 1 114.767 5.52351 -79.762
390 1 117.956 5.52351 -79.762
392 1 121.145 5.52351 -79.762
394 1 124.334 5.52351 -79.762
396 1 127.523 5.52351 -79.762
398 1 130.712 5.52351 -79.762
400 1 -78.1675 8.28527 -79.762
402 1 -74.9785 8.28527 -79.762
404 1 -71.7895 8.28527 -79.762
406 1 -68.6005 8.28527 -79.762
408 1 -65.4115 8.28527 -79.762
410 1 -62.2225 8.28527 -79.762
412 1 -59.0335 8.28527 -79.762
414 1 -55.8445 8.28527 -79.762
416 1 -52.6555 8.28527 -79.762
418 1 -49.4665 8.28527 -79.762
420 1 -46.2775 8.28527 -79.762
422 1 -43.0885 8.28527 -79.762
424 1 -39.8995 8.28527 -79.762
426 1 -36.7105 8.28527 -79.762
428 1 -33.5215 8.28527 -79.762
430 1 -30.3325 8.28527 -79.762
432 1 -27.1435 8.28527 -79.762
434 1 -23.9545 8.28527 -79.762
436 1 -20.7655 8.28527 -79.762
438 1 -17.5765 8.28527 -79.762
440 1 -14.3875 8.28527 -79.762
442 1 -11.1985 8.28527 -79.762
444 1 -8.00953 8.28527 -79.762
446 1 -4.82053 8.28527 -79.762
448 1 -1.63153 8.28527 -79.762
450 1 1.55747 8.28527 -79.762
452 1 4.74647 8.28527 -79.762
454 1 7.93547 8.28527 -79.762
456 1 11.1245 8.28527 -79.762
458 1 14.3135 8.28527 -79.762
460 1 17.5025 8.28527 -79.762
462 1 20.6915 8.28527 -79.762
464 1 23.8805 8.28527 -79.762
466 1 27.0695 8.28527 -79.762
468 1 30.2585 8.28527 -79.762
470 1 33.4475 8.28527 -79.762
472 1 36.6365 8.28527 -79.762
474 1 39.8255 8.28527 -79.762
476 1 43.0145 8.28527 -79.762
478 1 46.2035 8.28527 -79.762
480 1 49.3925 8.28527 -79.762
482 1 52.5815 8.28527 -79.762
484 1 55.7705 8.28527 -79.762
486 1 58.9595 8.28527 -79.762
488 1 62.1485 8.28527 -79.762
490 1 65.3375 8.28527 -79.762
492 1 68.5265 8.28527 -79.762
494 1 71.7155 8.28527 -79.762
496 1 74.9045 8.28527 -79.762
498 1 78.0935 8.28527 -79.762
500 1 81.2825 8.28527 -79.762
502 1 84.4715 8.28527 -79.762
504 1 87.6605 8.28527 -79.762
506 1 90.8495 8.28527 -79.762
508 1 94.0385 8.28527 -79.762
510 1 97.2275 8.28527 -79.762
512 1 100.416 8.28527 -79.762
514 1 103.605 8.28527 -79.762
516 1 106.794 8.28527 -79.762
518 1 109.983 8.28527 -79.762
520 1 113.172 8.28527 -79.762
522 1 116.361 8.28527 -79.762
524 1 119.55 8.28527 -79.762
526 1 122.739 8.28527 -79.762
528 1 125.928 8.28527 -79.762
530 1 129.117 8.28527 -79.762
531 1 -79.762 11.047 -79.762
533 1 -76.573 11.047 -79.762
535 1 -73.384 11.047 -79.762
537 1 -70.195 11.047 -79.762
539 1 -67.006 11.047 -79.762
541 1 -63.817 11.047 -79.762
543 1 -60.628 11.047 -79.762
545 1 -57.439 11.047 -79.762
547 1 -54.25 11.047 -79.762
549 1 -51.061 11.047 -79.762
551 1 -47.872 11.047 -79.762
553 1 -44.683 11.047 -79.762
555 1 -41.494 11.047 -79.762
557 1 -38.305 11.047 -79.762
559 1 -35.116 11.047 -79.762
561 1 -31.927 11.047 -79.762
563 1 -28.738 11.047 -79.762
565 1 -25.549 11.047 -79.762
567 1 -22.36 11.047 -79.762
569 1 -19.171 11.047 -79.762
571 1 -15.982 11.047 -79.762
573 1 -12.793 11.047 -79.762
575 1 -9.60403 11.047 -79.762
577 1 -6.41503 11.047 -79.762
579 1 -3.22603 11.047 -79.762
581 1 -0.0370261 11.047 -79.762
583 1 3.15197 11.047 -79.762
585 1 6.34097 11.047 -79.762
587 1 9.52997 11.047 -79.762
589 1 12.719 11.047 -79.762
591 1 15.908 11.047 -79.762
593 1 19.097 11.047 -79.762
595 1 22.286 11.047 -79.762
597 1 25.475 11.047 -79.762
599 1 28.664 11.047 -79.762
601 1 31.853 11.047 -79.762
603 1 35.042 11.047 -79.762
605 1 38.231 11.047 -79.762
607 1 41.42 11.047 -79.762
609 1 44.609 11.047 -79.762
611 1 47.798 11.047 -79.762
613 1 50.987 11.047 -79.762
615 1 54.176 11.047 -79.762
617 1 57.365 11.047 -79.762
619 1 60.554 11.047 -79.762
621 1 63.743 11.047 -79.762
623 1 66.932 11.047 -79.762
625 1 70.121 11.047 -79.762
627 1 73.31 11.047 -79.762
629 1 76.499 11.047 -79.762
631 1 79.688 11.047 -79.762
633 1 82.877 11.047 -79.762
635 1 86.066 11.047 -79.762
637 1 89.255 11.047 -79.762
639 1 92.444 11.047 -79.762
641 1 95.633 11.047 -79.762
643 1 98.822 11.047 -79.762
645 1 102.011 11.047 -79.762
647 1 105.2 11.047 -79.762
649 1 108.389 11.047 -79.762
651 1 111.578 11.047 -79.762
653 1 114.767 11.047 -79.762
655 1 117.956 11.047 -79.762
657 1 121.145 11.047 -79.762
659 1 124.334 11.047 -79.762
661 1 127.523 11.047 -79.762
663 1 130.712 11.047 -79.762
665 1 -78.1675 13.8088 -79.762
667 1 -74.9785 13.8088 -79.762
669 1 -71.7895 13.8088 -79.762
671 1 -68.6005 13.8088 -79.762
673 1 -65.4115 13.8088 -79.762
675 1 -62.2225 13.8088 -79.762
677 1 -59.0335 13.8088 -79.762
679 1 -55.8445 13.8088 -79.762
681 1 -52.6555 13.8088 -79.762
683 1 -49.4665 13.8088 -79.762
685 1 -46.2775 13.8088 -79.762
687 1 -43.0885 13.8088 -79.762
689 1 -39.8995 13.8088 -79.762
691 1 -36.7105 13.8088 -79.762
693 1 -33.5215 13.8088 -79.762
695 1 -30.3325 13.8088 -79.762
697 1 -27.1435 13.8088 -79.762
699 1 -23.9545 13.8088 -79.762
701 1 -20.7655 13.8088 -79.762
703 1 -17.5765 13.8088 -79.762
705 1 -14.3875 13.8088 -79.762
707 1 -11.1985 13.8088 -79.762
709 1 -8.00953 13.8088 -79.762
711 1 -4.82053 13.8088 -79.762
713 1 -1.63153 13.8088 -79.762
715 1 1.55747 13.8088 -79.762
717 1 4.74647 13.8088 -79.762
719 1 7.93547 13.8088 -79.762
721 1 11.1245 13.8088 -79.762
723 1 14.3135 13.8088 -79.762
725 1 17.5025 13.8088 -79.762
727 1 20.6915 13.8088 -79.762
729 1 23.8805 13.8088 -79.762
731 1 27.0695 13.8088 -79.762
733 1 30.2585 13.8088 -79.762
735 1 33.4475 13.8088 -79.762
737 1 36.6365 13.8088 -79.762
739 1 39.8255 13.8088 -79.762
741 1 43.0145 13.8088 -79.762
743 1 46.2035 13.8088 -79.762
745 1 49.3925 13.8088 -79.762
747 1 52.5815 13.8088 -79.762
749 1 55.7705 13.8088 -79.762
751 1 58.9595 13.8088 -79.762
753 1 62.1485 13.8088 -79.762
755 1 65.3375 13.8088 -79.762
757 1 68.5265 13.8088 -79.762
759 1 71.7155 13.8088 -79.762
761 1 74.9045 13.8088 -79.762
763 1 78.0935 13.8088 -79.762
765 1 81.2825 13.8088 -79.762
767 1 84.4715 13.8088 -79.762
769 1 87.6605 13.8088 -79.762
771 1 90.8495 13.8088 -79.762
773 1 94.0385 13.8088 -79.762
775 1 97.2275 13.8088 -79.762
777 1 100.416 13.8088 -79.762
779 1 103.605 13.8088 -79.762
781 1 106.794 13.8088 -79.762
783 1 109.983 13.8088 -79.762
785 1 113.172 13.8088 -79.762
787 1 116.361 13.8088 -79.762
789 1 119.55 13.8088 -79.762
791 1 122.739 13.8088 -79.762
793 1 125.928 13.8088 -79.762
795 1 129.117 13.8088 -79.762
796 1 -79.762 16.5705 -79.762
798 1 -76.573 16.5705 -79.762
800 1 -73.384 16.5705 -79.762
802 1 -70.195 16.5705 -79.762
804 1 -67.006 16.5705 -79.762
806 1 -63.817 16.5705 -79.762
808 1 -60.628 16.5705 -79.762
810 1 -57.439 16.5705 -79.762
812 1 -54.25 16.5705 -79.762
814 1 -51.061 16.5705 -79.762
816 1 -47.872 16.5705 -79.762
818 1 -44.683 16.5705 -79.762
820 1 -41.494 16.5705 -79.762
822 1 -38.305 16.5705 -79.762
824 1 -35.116 16.5705 -79.762
826 1 -31.927 16.5705 -79.762
828 1 -28.738 16.5705 -79.762
830 1 -25.549 16.5705 -79.762
832 1 -22.36 16.5705 -79.762
834 1 -19.171 16.5705 -79.762
836 1 -15.982 16.5705 -79.762
838 1 -12.793 16.5705 -79.762
840 1 -9.60403 16.5705 -79.762
842 1 -6.41503 16.5705 -79.762
844 1 -3.22603 16.5705 -79.762
846 1 -0.0370261 16.5705 -79.762
848 1 3.15197 16.5705 -79.762
850 1 6.34097 16.5705 -79.762
852 1 9.52997 16.5705 -79.762
854 1 12.719 16.5705 -79.762
856 1 15.908 16.5705 -79.762
858 1 19.097 16.5705 -79.762
860 1 22.286 16.5705 -79.762
862 1 25.475 16.5705 -79.762
864 1 28.664 16.5705 -79.762
866 1 31.853 16.5705 -79.762
868 1 35.042 16.5705 -79.762
870 1 38.231 16.5705 -79.762
872 1 41.42 16.5705 -79.762
874 1 44.609 16.5705 -79.762
876 1 47.798 16.5705 -79.762
878 1 50.987 16.5705 -79.762
880 1 54.176 16.5705 -79.762
882 1 57.365 16.5705 -79.762
884 1 60.554 16.5705 -79.762
886 1 63.743 16.5705 -79.762
888 1 66.932 16.5705 -79.762
890 1 70.121 16.5705 -79.762
892 1 73.31 16.5705 -79.762
894 1 76.499 16.5705 -79.762
896 1 79.688 16.5705 -79.762
898 1 82.877 16.5705 -79.762
900 1 86.066 16.5705 -79.762
902 1 89.255 16.5705 -79.762
904 1 92.444 16.5705 -79.762
906 1 95.633 16.5705 -79.762
908 1 98.822 16.5705 -79.762
910 1 102.011 16.5705 -79.762
912 1 105.2 16.5705 -79.762
914 1 108.389 16.5705 -79.762
916 1 111.578 16.5705 -79.762
918 1 114.767 16.5705 -79.762
920 1 117.956 16.5705 -79.762
922 1 121.145 16.5705 -79.762
924 1 124.334 16.5705 -79.762
926 1 127.523 16.5705 -79.762
928 1 130.712 16.5705 -79.762
930 1 -78.1675 19.3323 -79.762
932 1 -74.9785 19.3323 -79.762
934 1 -71.7895 19.3323 -79.762
936 1 -68.6005 19.3323 -79.762
938 1 -65.4115 19.3323 -79.762
940 1 -62.2225 19.3323 -79.762
942 1 -59.0335 19.3323 -79.762
944 1 -55.8445 19.3323 -79.762
946 1 -52.6555 19.3323 -79.762
948 1 -49.4665 19.3323 -79.762
950 1 -46.2775 19.3323 -79.762
952 1 -43.0885 19.3323 -79.762
954 1 -39.8995 19.3323 -79.762
956 1 -36.7105 19.3323 -79.762
958 1 -33.5215 19.3323 -79.762
960 1 -30.3325 19.3323 -79.762
962 1 -27.1435 19.3323 -79.762
964 1 -23.9545 19.3323 -79.762
966 1 -20.7655 19.3323 -79.762
968 1 -17.5765 19.3323 -79.762
970 1 -14.3875 19.3323 -79.762
972 1 -11.1985 19.3323 -79.762
974 1 -8.00953 19.3323 -79.762
976 1 -4.82053 19.3323 -79.762
978 1 -1.63153 19.3323 -79.762
980 1 1.55747 19.3323 -79.762
982 1 4.74647 19.3323 -79.762
984 1 7.93547 19.3323 -79.762
986 1 11.1245 19.3323 -79.762
988 1 14.3135 19.3323 -79.762
990 1 17.5025 19.3323 -79.762
992 1 20.6915 19.3323 -79.762
994 1 23.8805 19.3323 -79.762
996 1 27.0695 19.3323 -79.762
998 1 30.2585 19.3323 -79.762
1000 1 33.4475 19.3323 -79.762
1002 1 36.6365 19.3323 -79.762
1004 1 39.8255 19.3323 -79.762
1006 1 43.0145 19.3323 -79.762
1008 1 46.2035 19.3323 -79.762
1010 1 49.3925 19.3323 -79.762
1012 1 52.5815 19.3323 -79.762
1014 1 55.7705 19.3323 -79.762
1016 1 58.9595 19.3323 -79.762
1018 1 62.1485 19.3323 -79.762
1020 1 65.3375 19.3323 -79.762
1022 1 68.5265 19.3323 -79.762
1024 1 71.7155 19.3323 -79.762
1026 1 74.9045 19.3323 -79.762
1028 1 78.0935 19.3323 -79.762
1030 1 81.2825 19.3323 -79.762
1032 1 84.4715 19.3323 -79.762
1034 1 87.6605 19.3323 -79.762
1036 1 90.8495 19.3323 -79.762
1038 1 94.0385 19.3323 -79.762
1040 1 97.2275 19.3323 -79.762
1042 1 100.416 19.3323 -79.762
1044 1 103.605 19.3323 -79.762
1046 1 106.794 19.3323 -79.762
1048 1 109.983 19.3323 -79.762
1050 1 113.172 19.3323 -79.762
1052 1 116.361 19.3323 -79.762
1054 1 119.55 19.3323 -79.762
1056 1 122.739 19.3323 -79.762
1058 1 125.928 19.3323 -79.762
1060 1 129.117 19.3323 -79.762
1061 1 -79.762 22.094 -79.762
1063 1 -76.573 22.094 -79.762
1065 1 -73.384 22.094 -79.762
1067 1 -70.195 22.094 -79.762
1069 1 -67.006 22.094 -79.762
1071 1 -63.817 22.094 -79.762
1073 1 -60.628 22.094 -79.762
1075 1 -57.439 22.094 -79.762
1077 1 -54.25 22.094 -79.762
1079 1 -51.061 22.094 -79.762
1081 1 -47.872 22.094 -79.762
1083 1 -44.683 22.094 -79.762
1085 1 -41.494 22.094 -79.762
1087 1 -38.305 22.094 -79.762
1089 1 -35.116 22.094 -79.762
1091 1 -31.927 22.094 -79.762
1093 1 -28.738 22.094 -79.762
1095 1 -25.549 22.094 -79.762
1097 1 -22.36 22.094 -79.762
1099 1 -19.171 22.094 -79.762
1101 1 -15.982 22.094 -79.762
1103 1 -12.793 22.094 -79.762
1105 1 -9.60403 22.094 -79.762
1107 1 -6.41503 22.094 -79.762
1109 1 -3.22603 22.094 -79.762
1111 1 -0.0370261 22.094 -79.762
1113 1 3.15197 22.094 -79.762
1115 1 6.34097 22.094 -79.762
1117 1 9.52997 22.094 -79.762
1119 1 12.719 22.094 -79.762
1121 1 15.908 22.094 -79.762
1123 1 19.097 22.094 -79.762
1125 1 22.286 22.094 -79.762
1127 1 25.475 22.094 -79.762
1129 1 28.664 22.094 -79.762
1131 1 31.853 22.094 -79.762
1133 1 35.042 22.094 -79.762
1135 1 38.231 22.094 -79.762
1137 1 41.42 22.094 -79.762
1139 1 44.609 22.094 -79.762
1141 1 47.798 22.094 -79.762
1143 1 50.987 22.094 -79.762
1145 1 54.176 22.094 -79.762
1147 1 57.365 22.094 -79.762
1149 1 60.554 22.094 -79.762
1151 1 63.743 22.094 -79.762
1153 1 66.932 22.094 -79.762
1155 1 70.121 22.094 -79.762
1157 1 73.31 22.094 -79.762
1159 1 76.499 22.094 -79.762
1161 1 79.688 22.094 -79.762
1163 1 82.877 22.094 -79.762
1165 1 86.066 22.094 -79.762
1167 1 89.255 22.094 -79.762
1169 1 92.444 22.094 -79.762
1171 1 95.633 22.094 -79.762
1173 1 98.822 22.094 -79.762
1175 1 102.011 22.094 -79.762
1177 1 105.2 22.094 -79.762
1179 1 108.389 22.094 -79.762
1181 1 111.578 22.094 -79.762
1183 1 114.767 22.094 -79.762
1185 1 117.956 22.094 -79.762
1187 1 121.145 22.094 -79.762
1189 1 124.334 22.094 -79.762
1191 1 127.523 22.094 -79.762
1193 1 130.712 22.094 -79.762
1195 1 -78.1675 24.8558 -79.762
1197 1 -74.9785 24.8558 -79.762
1199 1 -71.7895 24.8558 -79.762
1201 1 -68.6005 24.8558 -79.762
1203 1 -65.4115 24.8558 -79.762
1205 1 -62.2225 24.8558 -79.762
1207 1 -59.0335 24.8558 -79.762
1209 1 -55.8445 24.8558 -79.762
1211 1 -52.6555 24.8558 -79.762
1213 1 -49.4665 24.8558 -79.762
1215 1 -46.2775 24.8558 -79.762
1217 1 -43.0885 24.8558 -79.762
1219 1 -39.8995 24.8558 -79.762
1221 1 -36.7105 24.8558 -79.762
1223 1 -33.5215 24.8558 -79.762
1225 1 -30.3325 24.8558 -79.762
1227 1 -27.1435 24.8558 -79.762
1229 1 -23.9545 24.8558 -79.762
1231 1 -20.7655 24.8558 -79.762
1233 1 -17.5765 24.8558 -79.762
1235 1 -14.3875 24.8558 -79.762
1237 1 -11.1985 24.8558 -79.762
1239 1 -8.00953 24.8558 -79.762
1241 1 -4.82053 24.8558 -79.762
1243 1 -1.63153 24.8558 -79.762
1245 1 1.55747 24.8558 -79.762
1247 1 4.74647 24.8558 -79.762
1249 1 7.93547 24.8558 -79.762
1251 1 11.1245 24.8558 -79.762
1253 1 14.3135 24.8558 -79.762
1255 1 17.5025 24.8558 -79.762
1257 1 20.6915 24.8558 -79.762
1259 1 23.8805 24.8558 -79.762
1261 1 27.0695 24.8558 -79.762
1263 1 30.2585 24.8558 -79.762
1265 1 33.4475 24.8558 -79.762
1267 1 36.6365 24.8558 -79.762
1269 1 39.8255 24.8558 -79.762
1271 1 43.0145 24.8558 -79.762
1273 1 46.2035 24.8558 -79.762
1275 1 49.3925 24.8558 -79.762
1277 1 52.5815 24.8558 -79.762
1279 1 55.7705 24.8558 -79.762
1281 1 58.9595 24.8558 -79.762
1283 1 62.1485 24.8558 -79.762
1285 1 65.3375 24.8558 -79.762
1287 1 68.5265 24.8558 -79.762
1289 1 71.7155 24.8558 -79.762
1291 1 74.9045 24.8558 -79.762
1293 1 78.0935 24.8558 -79.762
1295 1 81.2825 24.8558 -79.762
1297 1 84.4715 24.8558 -79.762
1299 1 87.6605 24.8558 -79.762
1301 1 90.8495 24.8558 -79.762
1303 1 94.0385 24.8558 -79.762
1305 1 97.2275 24.8558 -79.762
1307 1 100.416 24.8558 -79.762
1309 1 103.605 24.8558 -79.762
1311 1 106.794 24.8558 -79.762
1313 1 109.983 24.8558 -79.762
1315 1 113.172 24.8558 -79.762
1317 1 116.361 24.8558 -79.762
1319 1 119.55 24.8558 -79.762
1321 1 122.739 24.8558 -79.762
1323 1 125.928 24.8558 -79.762
1325 1 129.117 24.8558 -79.762
1326 1 -79.762 27.6176 -79.762
1328 1 -76.573 27.6176 -79.762
1330 1 -73.384 27.6176 -79.762
1332 1 -70.195 27.6176 -79.762
1334 1 -67.006 27.6176 -79.762
1336 1 -63.817 27.6176 -79.762
1338 1 -60.628 27.6176 -79.762
1340 1 -57.439 27.6176 -79.762
1342 1 -54.25 27.6176 -79.762
1344 1 -51.061 27.6176 -79.762
1346 1 -47.872 27.6176 -79.762
1348 1 -44.683 27.6176 -79.762
1350 1 -41.494 27.6176 -79.762
1352 1 -38.305 27.6176 -79.762
1354 1 -35.116 27.6176 -79.762
1356 1 -31.927 27.6176 -79.762
1358 1 -28.738 27.6176 -79.762
1360 1 -25.549 27.6176 -79.762
1362 1 -22.36 27.6176 -79.762
1364 1 -19.171 27.6176 -79.762
1366 1 -15.982 27.6176 -79.762
1368 1 -12.793 27.6176 -79.762
1370 1 -9.60403 27.6176 -79.762
1372 1 -6.41503 27.6176 -79.762
1374 1 -3.22603 27.6176 -79.762
1376 1 -0.0370261 27.6176 -79.762
1378 1 3.15197 27.6176 -79.762
1380 1 6.34097 27.6176 -79.762
1382 1 9.52997 27.6176 -79.762
1384 1 12.719 27.6176 -79.762
1386 1 15.908 27.6176 -79.762
1388 1 19.097 27.6176 -79.762
1390 1 22.286 27.6176 -79.762
1392 1 25.475 27.6176 -79.762
1394 1 28.664 27.6176 -79.762
1396 1 31.853 27.6176 -79.762
1398 1 35.042 27.6176 -79.762
1400 1 38.231 27.6176 -79.762
1402 1 41.42 27.6176 -79.762
1404 1 44.609 27.6176 -79.762
1406 1 47.798 27.6176 -79.762
1408 1 50.987 27.6176 -79.762
1410 1 54.176 27.6176 -79.762
1412 1 57.365 27.6176 -79.762
1414 1 60.554 27.6176 -79.762
1416 1 63.743 27.6176 -79.762
1418 1 66.932 27.6176 -79.762
1420 1 70.121 27.6176 -79.762
1422 1 73.31 27.6176 -79.762
1424 1 76.499 27.6176 -79.762
1426 1 79.688 27.6176 -79.762
1428 1 82.877 27.6176 -79.762
1430 1 86.066 27.6176 -79.762
1432 1 89.255 27.6176 -79.762
1434 1 92.444 27.6176 -79.762
1436 1 95.633 27.6176 -79.762
1438 1 98.822 27.6176 -79.762
1440 1 102.011 27.6176 -79.762
1442 1 105.2 27.6176 -79.762
1444 1 108.389 27.6176 -79.762
1446 1 111.578 27.6176 -79.762
1448 1 114.767 27.6176 -79.762
1450 1 117.956 27.6176 -79.762
1452 1 121.145 27.6176 -79.762
1454 1 124.334 27.6176 -79.762
1456 1 127.523 27.6176 -79.762
1458 1 130.712 27.6176 -79.762
1460 1 -78.1675 30.3793 -79.762
1462 1 -74.9785 30.3793 -79.762
1464 1 -71.7895 30.3793 -79.762
1466 1 -68.6005 30.3793 -79.762
1468 1 -65.4115 30.3793 -79.762
1470 1 -62.2225 30.3793 -79.762
1472 1 -59.0335 30.3793 -79.762
1474 1 -55.8445 30.3793 -79.762
1476 1 -52.6555 30.3793 -79.762
1478 1 -49.4665 30.3793 -79.762
1480 1 -46.2775 30.3793 -79.762
1482 1 -43.0885 30.3793 -79.762
1484 1 -39.8995 30.3793 -79.762
1486 1 -36.7105 30.3793 -79.762
1488 1 -33.5215 30.3793 -79.762
1490 1 -30.3325 30.3793 -79.762
1492 1 -27.1435 30.3793 -79.762
1494 1 -23.9545 30.3793 -79.762
1496 1 -20.7655 30.3793 -79.762
1498 1 -17.5765 30.3793 -79.762
1500 1 -14.3875 30.3793 -79.762
1502 1 -11.1985 30.3793 -79.762
1504 1 -8.00953 30.3793 -79.762
1506 1 -4.82053 30.3793 -79.762
1508 1 -1.63153 30.3793 -79.762
1510 1 1.55747 30.3793 -79.762
1512 1 4.74647 30.3793 -79.762
1514 1 7.93547 30.3793 -79.762
1516 1 11.1245 30.3793 -79.762
1518 1 14.3135 30.3793 -79.762
1520 1 17.5025 30.3793 -79.762
1522 1 20.6915 30.3793 -79.762
1524 1 23.8805 30.3793 -79.762
1526 1 27.0695 30.3793 -79.762
1528 1 30.2585 30.3793 -79.762
1530 1 33.4475 30.3793 -79.762
1532 1 36.6365 30.3793 -79.762
1534 1 39.8255 30.3793 -79.762
1536 1 43.0145 30.3793 -79.762
1538 1 46.2035 30.3793 -79.762
1540 1 49.3925 30.3793 -79.762
1542 1 52.5815 30.3793 -79.762
1544 1 55.7705 30.3793 -79.762
1546 1 58.9595 30.3793 -79.762
1548 1 62.1485 30.3793 -79.762
1550 1 65.3375 30.3793 -79.762
1552 1 68.5265 30.3793 -79.762
1554 1 71.7155 30.3793 -79.762
1556 1 74.9045 30.3793 -79.762
1558 1 78.0935 30.3793 -79.762
1560 1 81.2825 30.3793 -79.762
1562 1 84.4715 30.3793 -79.762
1564 1 87.6605 30.3793 -79.762
1566 1 90.8495 30.3793 -79.762
1568 1 94.0385 30.3793 -79.762
1570 1 97.2275 30.3793 -79.762
1572 1 100.416 30.3793 -79.762
1574 1 103.605 30.3793 -79.762
1576 1 106.794 30.3793 -79.762
1578 1 109.983 30.3793 -79.762
1580 1 113.172 30.3793 -79.762
1582 1 116.361 30.3793 -79.762
1584 1 119.55 30.3793 -79.762
1586 1 122.739 30.3793 -79.762
1588 1 125.928 30.3793 -79.762
1590 1 129.117 30.3793 -79.762
1591 1 -79.762 33.1411 -79.762
1592 1 -76.573 33.1411 -79.762
1593 1 -73.384 33.1411 -79.762
1594 1 -70.195 33.1411 -79.762
1595 1 -67.006 33.1411 -79.762
1596 1 -63.817 33.1411 -79.762
1597 1 -60.628 33.1411 -79.762
1598 1 -57.439 33.1411 -79.762
1599 1 -54.25 33.1411 -79.762
1600 1 -51.061 33.1411 -79.762
1601 1 -47.872 33.1411 -79.762
1602 1 -44.683 33.1411 -79.762
1603 1 -41.494 33.1411 -79.762
1604 1 -38.305 33.1411 -79.762
1605 1 -35.116 33.1411 -79.762
1606 1 -31.927 33.1411 -79.762
1607 1 -28.738 33.1411 -79.762
1608 1 -25.549 33.1411 -79.762
1609 1 -22.36 33.1411 -79.762
1610 1 -19.171 33.1411 -79.762
1611 1 -15.982 33.1411 -79.762
1612 1 -12.793 33.1411 -79.762
1613 1 -9.60403 33.1411 -79.762
1614 1 -6.41503 33.1411 -79.762
1615 1 -3.22603 33.1411 -79.762
1616 1 -0.0370261 33.1411 -79.762
1617 1 3.15197 33.1411 -79.762
1618 1 6.34097 33.1411 -79.762
1619 1 9.52997 33.1411 -79.762
1620 1 12.719 33.1411 -79.762
1621 1 15.908 33.1411 -79.762
1622 1 19.097 33.1411 -79.762
1623 1 22.286 33.1411 -79.762
1624 1 25.475 33.1411 -79.762
1625 1 28.664 33.1411 -79.762
1626 1 31.853 33.1411 -79.762
1627 1 35.042 33.1411 -79.762
1628 1 38.231 33.1411 -79.762
1629 1 41.42 33.1411 -79.762
1630 1 44.609 33.1411 -79.762
1631 1 47.798 33.1411 -79.762
1632 1 50.987 33.1411 -79.762
1633 1 54.176 33.1411 -79.762
1634 1 57.365 33.1411 -79.762
1635 1 60.554 33.1411 -79.762
1636 1 63.743 33.1411 -79.762
1637 1 66.932 33.1411 -79.762
1638 1 70.121 33.1411 -79.762
1639 1 73.31 33.1411 -79.762
1640 1 76.499 33.1411 -79.762
1641 1 79.688 33.1411 -79.762
1642 1 82.877 33.1411 -79.762
1643 1 86.066 33.1411 -79.762
1644 1 89.255 33.1411 -79.762
1645 1 92.444 33.1411 -79.762
1646 1 95.633 33.1411 -79.762
1647 1 98.822 33.1411 -79.762
1648 1 102.011 33.1411 -79.762
1649 1 105.2 33.1411 -79.762
1650 1 108.389 33.1411 -79.762
1651 1 111.578 33.1411 -79.762
1652 1 114.767 33.1411 -79.762
1653 1 117.956 33.1411 -79.762
1654 1 121.145 33.1411 -79.762
1655 1 124.334 33.1411 -79.762
1656 1 127.523 33.1411 -79.762
1657 1 130.712 33.1411 -79.762
2 1 -78.1995 1.01668 -71.4774
4 1 -75.0105 1.01668 -71.4774
6 1 -71.8215 1.01668 -71.4774
8 1 -68.6325 1.01668 -71.4774
10 1 -65.4435 1.01668 -71.4774
12 1 -62.2545 1.01668 -71.4774
14 1 -59.0655 1.01668 -71.4774
16 1 -55.8765 1.01668 -71.4774
18 1 -52.6875 1.01668 -71.4774
20 1 -49.4985 1.01668 -71.4774
22 1 -46.3095 1.01668 -71.4774
24 1 -43.1205 1.01668 -71.4774
26 1 -39.9315 1.01668 -71.4774
28 1 -36.7425 1.01668 -71.4774
30 1 -33.5535 1.01668 -71.4774
32 1 -30.3645 1.01668 -71.4774
34 1 -27.1755 1.01668 -71.4774
36 1 -23.9865 1.01668 -71.4774
38 1 -20.7975 1.01668 -71.4774
40 1 -17.6085 1.01668 -71.4774
42 1 -14.4195 1.01668 -71.4774
44 1 -11.2305 1.01668 -71.4774
46 1 -8.04152 1.01668 -71.4774
48 1 -4.85252 1.01668 -71.4774
50 1 -1.66352 1.01668 -71.4774
52 1 1.52548 1.01668 -71.4774
54 1 4.71448 1.01668 -71.4774
56 1 7.90348 1.01668 -71.4774
58 1 11.0925 1.01668 -71.4774
60 1 14.2815 1.01668 -71.4774
62 1 17.4705 1.01668 -71.4774
64 1 20.6595 1.01668 -71.4774
66 1 23.8485 1.01668 -71.4774
68 1 27.0375 1.01668 -71.4774
70 1 30.2265 1.01668 -71.4774
72 1 33.4155 1.01668 -71.4774
74 1 36.6045 1.01668 -71.4774
76 1 39.7935 1.01668 -71.4774
78 1 42.9825 1.01668 -71.4774
80 1 46.1715 1.01668 -71.4774
82 1 49.3605 1.01668 -71.4774
84 1 52.5495 1.01668 -71.4774
86 1 55.7385 1.01668 -71.4774
88 1 58.9275 1.01668 -71.4774
90 1 62.1165 1.01668 -71.4774
92 1 65.3055 1.01668 -71.4774
94 1 68.4945 1.01668 -71.4774
96 1 71.6835 1.01668 -71.4774
98 1 74.8725 1.01668 -71.4774
100 1 78.0615 1.01668 -71.4774
102 1 81.2505 1.01668 -71.4774
104 1 84.4395 1.01668 -71.4774
106 1 87.6285 1.01668 -71.4774
108 1 90.8175 1.01668 -71.4774
110 1 94.0065 1.01668 -71.4774
112 1 97.1955 1.01668 -71.4774
114 1 100.384 1.01668 -71.4774
116 1 103.573 1.01668 -71.4774
118 1 106.762 1.01668 -71.4774
120 1 109.951 1.01668 -71.4774
122 1 113.14 1.01668 -71.4774
124 1 116.329 1.01668 -71.4774
126 1 119.518 1.01668 -71.4774
128 1 122.707 1.01668 -71.4774
130 1 125.896 1.01668 -71.4774
132 1 129.085 1.01668 -71.4774
134 1 -79.7619 3.68225 -71.4945
136 1 -76.605 3.77843 -71.4774
138 1 -73.416 3.77843 -71.4774
140 1 -70.227 3.77843 -71.4774
142 1 -67.038 3.77843 -71.4774
144 1 -63.849 3.77843 -71.4774
146 1 -60.66 3.77843 -71.4774
148 1 -57.471 3.77843 -71.4774
150 1 -54.282 3.77843 -71.4774
152 1 -51.093 3.77843 -71.4774
154 1 -47.904 3.77843 -71.4774
156 1 -44.715 3.77843 -71.4774
158 1 -41.526 3.77843 -71.4774
160 1 -38.337 3.77843 -71.4774
162 1 -35.148 3.77843 -71.4774
164 1 -31.959 3.77843 -71.4774
166 1 -28.77 3.77843 -71.4774
168 1 -25.581 3.77843 -71.4774
170 1 -22.392 3.77843 -71.4774
172 1 -19.203 3.77843 -71.4774
174 1 -16.014 3.77843 -71.4774
176 1 -12.825 3.77843 -71.4774
178 1 -9.63602 3.77843 -71.4774
180 1 -6.44702 3.77843 -71.4774
182 1 -3.25802 3.77843 -71.4774
184 1 -0.06902 3.77843 -71.4774
186 1 3.11998 3.77843 -71.4774
188 1 6.30898 3.77843 -71.4774
190 1 9.49798 3.77843 -71.4774
192 1 12.687 3.77843 -71.4774
194 1 15.876 3.77843 -71.4774
196 1 19.065 3.77843 -71.4774
198 1 22.254 3.77843 -71.4774
200 1 25.443 3.77843 -71.4774
202 1 28.632 3.77843 -71.4774
204 1 31.821 3.77843 -71.4774
206 1 35.01 3.77843 -71.4774
208 1 38.199 3.77843 -71.4774
210 1 41.388 3.77843 -71.4774
212 1 44.577 3.77843 -71.4774
214 1 47.766 3.77843 -71.4774
216 1 50.955 3.77843 -71.4774
218 1 54.144 3.77843 -71.4774
220 1 57.333 3.77843 -71.4774
222 1 60.522 3.77843 -71.4774
224 1 63.711 3.77843 -71.4774
226 1 66.9 3.77843 -71.4774
228 1 70.089 3.77843 -71.4774
230 1 73.278 3.77843 -71.4774
232 1 76.467 3.77843 -71.4774
234 1 79.656 3.77843 -71.4774
236 1 82.845 3.77843 -71.4774
238 1 86.034 3.77843 -71.4774
240 1 89.223 3.77843 -71.4774
242 1 92.412 3.77843 -71.4774
244 1 95.601 3.77843 -71.4774
246 1 98.79 3.77843 -71.4774
248 1 101.979 3.77843 -71.4774
250 1 105.168 3.77843 -71.4774
252 1 108.357 3.77843 -71.4774
254 1 111.546 3.77843 -71.4774
256 1 114.735 3.77843 -71.4774
258 1 117.924 3.77843 -71.4774
260 1 121.113 3.77843 -71.4774
262 1 124.302 3.77843 -71.4774
264 1 127.491 3.77843 -71.4774
267 1 -78.1995 6.54019 -71.4774