ITEM: TIMESTEP
16500
ITEM: NUMBER OF ATOMS
14121
ITEM: BOX BOUNDS ss ss ss
-6.6917181603362010e+01 5.4348561858041614e+02
-1.0231754111503553e+00 3.8546372964219039e+01
-6.6902745302679207e+01 3.9698473707746268e+02
ITEM: ATOMS id type x y z
1 1 -66.9601 0 -66.9601
3 1 -63.7711 0 -66.9601
5 1 -60.5821 0 -66.9601
7 1 -57.3931 0 -66.9601
9 1 -54.2041 0 -66.9601
11 1 -51.0151 0 -66.9601
13 1 -47.8261 0 -66.9601
15 1 -44.6371 0 -66.9601
17 1 -41.4481 0 -66.9601
19 1 -38.2591 0 -66.9601
21 1 -35.0701 0 -66.9601
23 1 -31.8811 0 -66.9601
25 1 -28.6921 0 -66.9601
27 1 -25.5031 0 -66.9601
29 1 -22.3141 0 -66.9601
31 1 -19.1251 0 -66.9601
33 1 -15.9361 0 -66.9601
35 1 -12.7471 0 -66.9601
37 1 -9.55814 0 -66.9601
39 1 -6.36914 0 -66.9601
41 1 -3.18014 0 -66.9601
43 1 0.00886057 0 -66.9601
45 1 3.19786 0 -66.9601
47 1 6.38686 0 -66.9601
49 1 9.57586 0 -66.9601
51 1 12.7649 0 -66.9601
53 1 15.9539 0 -66.9601
55 1 19.1429 0 -66.9601
57 1 22.3319 0 -66.9601
59 1 25.5209 0 -66.9601
61 1 28.7099 0 -66.9601
63 1 31.8989 0 -66.9601
65 1 35.0879 0 -66.9601
67 1 38.2769 0 -66.9601
69 1 41.4659 0 -66.9601
71 1 44.6549 0 -66.9601
73 1 47.8439 0 -66.9601
75 1 51.0329 0 -66.9601
77 1 54.2219 0 -66.9601
79 1 57.4109 0 -66.9601
81 1 60.5999 0 -66.9601
83 1 63.7889 0 -66.9601
85 1 66.9779 0 -66.9601
87 1 70.1669 0 -66.9601
89 1 73.3559 0 -66.9601
91 1 76.5449 0 -66.9601
93 1 79.7339 0 -66.9601
95 1 82.9229 0 -66.9601
97 1 86.1119 0 -66.9601
99 1 89.3009 0 -66.9601
101 1 92.4899 0 -66.9601
103 1 95.6789 0 -66.9601
105 1 98.8679 0 -66.9601
107 1 102.057 0 -66.9601
109 1 105.246 0 -66.9601
111 1 108.435 0 -66.9601
113 1 111.624 0 -66.9601
115 1 114.813 0 -66.9601
117 1 118.002 0 -66.9601
119 1 121.191 0 -66.9601
121 1 124.38 0 -66.9601
123 1 127.569 0 -66.9601
125 1 130.758 0 -66.9601
127 1 133.947 0 -66.9601
129 1 137.136 0 -66.9601
131 1 140.325 0 -66.9601
133 1 143.514 0 -66.9601
135 1 -65.3656 2.76176 -66.9601
137 1 -62.1766 2.76176 -66.9601
139 1 -58.9876 2.76176 -66.9601
141 1 -55.7986 2.76176 -66.9601
143 1 -52.6096 2.76176 -66.9601
145 1 -49.4206 2.76176 -66.9601
147 1 -46.2316 2.76176 -66.9601
149 1 -43.0426 2.76176 -66.9601
151 1 -39.8536 2.76176 -66.9601
153 1 -36.6646 2.76176 -66.9601
155 1 -33.4756 2.76176 -66.9601
157 1 -30.2866 2.76176 -66.9601
159 1 -27.0976 2.76176 -66.9601
161 1 -23.9086 2.76176 -66.9601
163 1 -20.7196 2.76176 -66.9601
165 1 -17.5306 2.76176 -66.9601
167 1 -14.3416 2.76176 -66.9601
169 1 -11.1526 2.76176 -66.9601
171 1 -7.96364 2.76176 -66.9601
173 1 -4.77464 2.76176 -66.9601
175 1 -1.58564 2.76176 -66.9601
177 1 1.60336 2.76176 -66.9601
179 1 4.79236 2.76176 -66.9601
181 1 7.98136 2.76176 -66.9601
183 1 11.1704 2.76176 -66.9601
185 1 14.3594 2.76176 -66.9601
187 1 17.5484 2.76176 -66.9601
189 1 20.7374 2.76176 -66.9601
191 1 23.9264 2.76176 -66.9601
193 1 27.1154 2.76176 -66.9601
195 1 30.3044 2.76176 -66.9601
197 1 33.4934 2.76176 -66.9601
199 1 36.6824 2.76176 -66.9601
201 1 39.8714 2.76176 -66.9601
203 1 43.0604 2.76176 -66.9601
205 1 46.2494 2.76176 -66.9601
207 1 49.4384 2.76176 -66.9601
209 1 52.6274 2.76176 -66.9601
211 1 55.8164 2.76176 -66.9601
213 1 59.0054 2.76176 -66.9601
215 1 62.1944 2.76176 -66.9601
217 1 65.3834 2.76176 -66.9601
219 1 68.5724 2.76176 -66.9601
221 1 71.7614 2.76176 -66.9601
223 1 74.9504 2.76176 -66.9601
225 1 78.1394 2.76176 -66.9601
227 1 81.3284 2.76176 -66.9601
229 1 84.5174 2.76176 -66.9601
231 1 87.7064 2.76176 -66.9601
233 1 90.8954 2.76176 -66.9601
235 1 94.0844 2.76176 -66.9601
237 1 97.2734 2.76176 -66.9601
239 1 100.462 2.76176 -66.9601
241 1 103.651 2.76176 -66.9601
243 1 106.84 2.76176 -66.9601
245 1 110.029 2.76176 -66.9601
247 1 113.218 2.76176 -66.9601
249 1 116.407 2.76176 -66.9601
251 1 119.596 2.76176 -66.9601
253 1 122.785 2.76176 -66.9601
255 1 125.974 2.76176 -66.9601
257 1 129.163 2.76176 -66.9601
259 1 132.352 2.76176 -66.9601
261 1 135.541 2.76176 -66.9601
263 1 138.73 2.76176 -66.9601
265 1 141.919 2.76176 -66.9601
266 1 -66.9601 5.52351 -66.9601
268 1 -63.7711 5.52351 -66.9601
270 1 -60.5821 5.52351 -66.9601
272 1 -57.3931 5.52351 -66.9601
274 1 -54.2041 5.52351 -66.9601
276 1 -51.0151 5.52351 -66.9601
278 1 -47.8261 5.52351 -66.9601
280 1 -44.6371 5.52351 -66.9601
282 1 -41.4481 5.52351 -66.9601
284 1 -38.2591 5.52351 -66.9601
286 1 -35.0701 5.52351 -66.9601
288 1 -31.8811 5.52351 -66.9601
290 1 -28.6921 5.52351 -66.9601
292 1 -25.5031 5.52351 -66.9601
294 1 -22.3141 5.52351 -66.9601
296 1 -19.1251 5.52351 -66.9601
298 1 -15.9361 5.52351 -66.9601
300 1 -12.7471 5.52351 -66.9601
302 1 -9.55814 5.52351 -66.9601
304 1 -6.36914 5.52351 -66.9601
306 1 -3.18014 5.52351 -66.9601
308 1 0.00886057 5.52351 -66.9601
310 1 3.19786 5.52351 -66.9601
312 1 6.38686 5.52351 -66.9601
314 1 9.57586 5.52351 -66.9601
316 1 12.7649 5.52351 -66.9601
318 1 15.9539 5.52351 -66.9601
320 1 19.1429 5.52351 -66.9601
322 1 22.3319 5.52351 -66.9601
324 1 25.5209 5.52351 -66.9601
326 1 28.7099 5.52351 -66.9601
328 1 31.8989 5.52351 -66.9601
330 1 35.0879 5.52351 -66.9601
332 1 38.2769 5.52351 -66.9601
334 1 41.4659 5.52351 -66.9601
336 1 44.6549 5.52351 -66.9601
338 1 47.8439 5.52351 -66.9601
340 1 51.0329 5.52351 -66.9601
342 1 54.2219 5.52351 -66.9601
344 1 57.4109 5.52351 -66.9601
346 1 60.5999 5.52351 -66.9601
348 1 63.7889 5.52351 -66.9601
350 1 66.9779 5.52351 -66.9601
352 1 70.1669 5.52351 -66.9601
354 1 73.3559 5.52351 -66.9601
356 1 76.5449 5.52351 -66.9601
358 1 79.7339 5.52351 -66.9601
360 1 82.9229 5.52351 -66.9601
362 1 86.1119 5.52351 -66.9601
364 1 89.3009 5.52351 -66.9601
366 1 92.4899 5.52351 -66.9601
368 1 95.6789 5.52351 -66.9601
370 1 98.8679 5.52351 -66.9601
372 1 102.057 5.52351 -66.9601
374 1 105.246 5.52351 -66.9601
376 1 108.435 5.52351 -66.9601
378 1 111.624 5.52351 -66.9601
380 1 114.813 5.52351 -66.9601
382 1 118.002 5.52351 -66.9601
384 1 121.191 5.52351 -66.9601
386 1 124.38 5.52351 -66.9601
388 1 127.569 5.52351 -66.9601
390 1 130.758 5.52351 -66.9601
392 1 133.947 5.52351 -66.9601
394 1 137.136 5.52351 -66.9601
396 1 140.325 5.52351 -66.9601
398 1 143.514 5.52351 -66.9601
400 1 -65.3656 8.28527 -66.9601
402 1 -62.1766 8.28527 -66.9601
404 1 -58.9876 8.28527 -66.9601
406 1 -55.7986 8.28527 -66.9601
408 1 -52.6096 8.28527 -66.9601
410 1 -49.4206 8.28527 -66.9601
412 1 -46.2316 8.28527 -66.9601
414 1 -43.0426 8.28527 -66.9601
416 1 -39.8536 8.28527 -66.9601
418 1 -36.6646 8.28527 -66.9601
420 1 -33.4756 8.28527 -66.9601
422 1 -30.2866 8.28527 -66.9601
424 1 -27.0976 8.28527 -66.9601
426 1 -23.9086 8.28527 -66.9601
428 1 -20.7196 8.28527 -66.9601
430 1 -17.5306 8.28527 -66.9601
432 1 -14.3416 8.28527 -66.9601
434 1 -11.1526 8.28527 -66.9601
436 1 -7.96364 8.28527 -66.9601
438 1 -4.77464 8.28527 -66.9601
440 1 -1.58564 8.28527 -66.9601
442 1 1.60336 8.28527 -66.9601
444 1 4.79236 8.28527 -66.9601
446 1 7.98136 8.28527 -66.9601
448 1 11.1704 8.28527 -66.9601
450 1 14.3594 8.28527 -66.9601
452 1 17.5484 8.28527 -66.9601
454 1 20.7374 8.28527 -66.9601
456 1 23.9264 8.28527 -66.9601
458 1 27.1154 8.28527 -66.9601
460 1 30.3044 8.28527 -66.9601
462 1 33.4934 8.28527 -66.9601
464 1 36.6824 8.28527 -66.9601
466 1 39.8714 8.28527 -66.9601
468 1 43.0604 8.28527 -66.9601
470 1 46.2494 8.28527 -66.9601
472 1 49.4384 8.28527 -66.9601
474 1 52.6274 8.28527 -66.9601
476 1 55.8164 8.28527 -66.9601
478 1 59.0054 8.28527 -66.9601
480 1 62.1944 8.28527 -66.9601
482 1 65.3834 8.28527 -66.9601
484 1 68.5724 8.28527 -66.9601
486 1 71.7614 8.28527 -66.9601
488 1 74.9504 8.28527 -66.9601
490 1 78.1394 8.28527 -66.9601
492 1 81.3284 8.28527 -66.9601
494 1 84.5174 8.28527 -66.9601
496 1 87.7064 8.28527 -66.9601
498 1 90.8954 8.28527 -66.9601
500 1 94.0844 8.28527 -66.9601
502 1 97.2734 8.28527 -66.9601
504 1 100.462 8.28527 -66.9601
506 1 103.651 8.28527 -66.9601
508 1 106.84 8.28527 -66.9601
510 1 110.029 8.28527 -66.9601
512 1 113.218 8.28527 -66.9601
514 1 116.407 8.28527 -66.9601
516 1 119.596 8.28527 -66.9601
518 1 122.785 8.28527 -66.9601
520 1 125.974 8.28527 -66.9601
522 1 129.163 8.28527 -66.9601
524 1 132.352 8.28527 -66.9601
526 1 135.541 8.28527 -66.9601
528 1 138.73 8.28527 -66.9601
530 1 141.919 8.28527 -66.9601
531 1 -66.9601 11.047 -66.9601
533 1 -63.7711 11.047 -66.9601
535 1 -60.5821 11.047 -66.9601
537 1 -57.3931 11.047 -66.9601
539 1 -54.2041 11.047 -66.9601
541 1 -51.0151 11.047 -66.9601
543 1 -47.8261 11.047 -66.9601
545 1 -44.6371 11.047 -66.9601
547 1 -41.4481 11.047 -66.9601
549 1 -38.2591 11.047 -66.9601
551 1 -35.0701 11.047 -66.9601
553 1 -31.8811 11.047 -66.9601
555 1 -28.6921 11.047 -66.9601
557 1 -25.5031 11.047 -66.9601
559 1 -22.3141 11.047 -66.9601
561 1 -19.1251 11.047 -66.9601
563 1 -15.9361 11.047 -66.9601
565 1 -12.7471 11.047 -66.9601
567 1 -9.55814 11.047 -66.9601
569 1 -6.36914 11.047 -66.9601
571 1 -3.18014 11.047 -66.9601
573 1 0.00886057 11.047 -66.9601
575 1 3.19786 11.047 -66.9601
577 1 6.38686 11.047 -66.9601
579 1 9.57586 11.047 -66.9601
581 1 12.7649 11.047 -66.9601
583 1 15.9539 11.047 -66.9601
585 1 19.1429 11.047 -66.9601
587 1 22.3319 11.047 -66.9601
589 1 25.5209 11.047 -66.9601
591 1 28.7099 11.047 -66.9601
593 1 31.8989 11.047 -66.9601
595 1 35.0879 11.047 -66.9601
597 1 38.2769 11.047 -66.9601
599 1 41.4659 11.047 -66.9601
601 1 44.6549 11.047 -66.9601
603 1 47.8439 11.047 -66.9601
605 1 51.0329 11.047 -66.9601
607 1 54.2219 11.047 -66.9601
609 1 57.4109 11.047 -66.9601
611 1 60.5999 11.047 -66.9601
613 1 63.7889 11.047 -66.9601
615 1 66.9779 11.047 -66.9601
617 1 70.1669 11.047 -66.9601
619 1 73.3559 11.047 -66.9601
621 1 76.5449 11.047 -66.9601
623 1 79.7339 11.047 -66.9601
625 1 82.9229 11.047 -66.9601
627 1 86.1119 11.047 -66.9601
629 1 89.3009 11.047 -66.9601
631 1 92.4899 11.047 -66.9601
633 1 95.6789 11.047 -66.9601
635 1 98.8679 11.047 -66.9601
637 1 102.057 11.047 -66.9601
639 1 105.246 11.047 -66.9601
641 1 108.435 11.047 -66.9601
643 1 111.624 11.047 -66.9601
645 1 114.813 11.047 -66.9601
647 1 118.002 11.047 -66.9601
649 1 121.191 11.047 -66.9601
651 1 124.38 11.047 -66.9601
653 1 127.569 11.047 -66.9601
655 1 130.758 11.047 -66.9601
657 1 133.947 11.047 -66.9601
659 1 137.136 11.047 -66.9601
661 1 140.325 11.047 -66.9601
663 1 143.514 11.047 -66.9601
665 1 -65.3656 13.8088 -66.9601
667 1 -62.1766 13.8088 -66.9601
669 1 -58.9876 13.8088 -66.9601
671 1 -55.7986 13.8088 -66.9601
673 1 -52.6096 13.8088 -66.9601
675 1 -49.4206 13.8088 -66.9601
677 1 -46.2316 13.8088 -66.9601
679 1 -43.0426 13.8088 -66.9601
681 1 -39.8536 13.8088 -66.9601
683 1 -36.6646 13.8088 -66.9601
685 1 -33.4756 13.8088 -66.9601
687 1 -30.2866 13.8088 -66.9601
689 1 -27.0976 13.8088 -66.9601
691 1 -23.9086 13.8088 -66.9601
693 1 -20.7196 13.8088 -66.9601
695 1 -17.5306 13.8088 -66.9601
697 1 -14.3416 13.8088 -66.9601
699 1 -11.1526 13.8088 -66.9601
701 1 -7.96364 13.8088 -66.9601
703 1 -4.77464 13.8088 -66.9601
705 1 -1.58564 13.8088 -66.9601
707 1 1.60336 13.8088 -66.9601
709 1 4.79236 13.8088 -66.9601
711 1 7.98136 13.8088 -66.9601
713 1 11.1704 13.8088 -66.9601
715 1 14.3594 13.8088 -66.9601
717 1 17.5484 13.8088 -66.9601
719 1 20.7374 13.8088 -66.9601
721 1 23.9264 13.8088 -66.9601
723 1 27.1154 13.8088 -66.9601
725 1 30.3044 13.8088 -66.9601
727 1 33.4934 13.8088 -66.9601
729 1 36.6824 13.8088 -66.9601
731 1 39.8714 13.8088 -66.9601
733 1 43.0604 13.8088 -66.9601
735 1 46.2494 13.8088 -66.9601
737 1 49.4384 13.8088 -66.9601
739 1 52.6274 13.8088 -66.9601
741 1 55.8164 13.8088 -66.9601
743 1 59.0054 13.8088 -66.9601
745 1 62.1944 13.8088 -66.9601
747 1 65.3834 13.8088 -66.9601
749 1 68.5724 13.8088 -66.9601
751 1 71.7614 13.8088 -66.9601
753 1 74.9504 13.8088 -66.9601
755 1 78.1394 13.8088 -66.9601
757 1 81.3284 13.8088 -66.9601
759 1 84.5174 13.8088 -66.9601
761 1 87.7064 13.8088 -66.9601
763 1 90.8954 13.8088 -66.9601
765 1 94.0844 13.8088 -66.9601
767 1 97.2734 13.8088 -66.9601
769 1 100.462 13.8088 -66.9601
771 1 103.651 13.8088 -66.9601
773 1 106.84 13.8088 -66.9601
775 1 110.029 13.8088 -66.9601
777 1 113.218 13.8088 -66.9601
779 1 116.407 13.8088 -66.9601
781 1 119.596 13.8088 -66.9601
783 1 122.785 13.8088 -66.9601
785 1 125.974 13.8088 -66.9601
787 1 129.163 13.8088 -66.9601
789 1 132.352 13.8088 -66.9601
791 1 135.541 13.8088 -66.9601
793 1 138.73 13.8088 -66.9601
795 1 141.919 13.8088 -66.9601
796 1 -66.9601 16.5705 -66.9601
798 1 -63.7711 16.5705 -66.9601
800 1 -60.5821 16.5705 -66.9601
802 1 -57.3931 16.5705 -66.9601
804 1 -54.2041 16.5705 -66.9601
806 1 -51.0151 16.5705 -66.9601
808 1 -47.8261 16.5705 -66.9601
810 1 -44.6371 16.5705 -66.9601
812 1 -41.4481 16.5705 -66.9601
814 1 -38.2591 16.5705 -66.9601
816 1 -35.0701 16.5705 -66.9601
818 1 -31.8811 16.5705 -66.9601
820 1 -28.6921 16.5705 -66.9601
822 1 -25.5031 16.5705 -66.9601
824 1 -22.3141 16.5705 -66.9601
826 1 -19.1251 16.5705 -66.9601
828 1 -15.9361 16.5705 -66.9601
830 1 -12.7471 16.5705 -66.9601
832 1 -9.55814 16.5705 -66.9601
834 1 -6.36914 16.5705 -66.9601
836 1 -3.18014 16.5705 -66.9601
838 1 0.00886057 16.5705 -66.9601
840 1 3.19786 16.5705 -66.9601
842 1 6.38686 16.5705 -66.9601
844 1 9.57586 16.5705 -66.9601
846 1 12.7649 16.5705 -66.9601
848 1 15.9539 16.5705 -66.9601
850 1 19.1429 16.5705 -66.9601
852 1 22.3319 16.5705 -66.9601
854 1 25.5209 16.5705 -66.9601
856 1 28.7099 16.5705 -66.9601
858 1 31.8989 16.5705 -66.9601
860 1 35.0879 16.5705 -66.9601
862 1 38.2769 16.5705 -66.9601
864 1 41.4659 16.5705 -66.9601
866 1 44.6549 16.5705 -66.9601
868 1 47.8439 16.5705 -66.9601
870 1 51.0329 16.5705 -66.9601
872 1 54.2219 16.5705 -66.9601
874 1 57.4109 16.5705 -66.9601
876 1 60.5999 16.5705 -66.9601
878 1 63.7889 16.5705 -66.9601
880 1 66.9779 16.5705 -66.9601
882 1 70.1669 16.5705 -66.9601
884 1 73.3559 16.5705 -66.9601
886 1 76.5449 16.5705 -66.9601
888 1 79.7339 16.5705 -66.9601
890 1 82.9229 16.5705 -66.9601
892 1 86.1119 16.5705 -66.9601
894 1 89.3009 16.5705 -66.9601
896 1 92.4899 16.5705 -66.9601
898 1 95.6789 16.5705 -66.9601
900 1 98.8679 16.5705 -66.9601
902 1 102.057 16.5705 -66.9601
904 1 105.246 16.5705 -66.9601
906 1 108.435 16.5705 -66.9601
908 1 111.624 16.5705 -66.9601
910 1 114.813 16.5705 -66.9601
912 1 118.002 16.5705 -66.9601
914 1 121.191 16.5705 -66.9601
916 1 124.38 16.5705 -66.9601
918 1 127.569 16.5705 -66.9601
920 1 130.758 16.5705 -66.9601
922 1 133.947 16.5705 -66.9601
924 1 137.136 16.5705 -66.9601
926 1 140.325 16.5705 -66.9601
928 1 143.514 16.5705 -66.9601
930 1 -65.3656 19.3323 -66.9601
932 1 -62.1766 19.3323 -66.9601
934 1 -58.9876 19.3323 -66.9601
936 1 -55.7986 19.3323 -66.9601
938 1 -52.6096 19.3323 -66.9601
940 1 -49.4206 19.3323 -66.9601
942 1 -46.2316 19.3323 -66.9601
944 1 -43.0426 19.3323 -66.9601
946 1 -39.8536 19.3323 -66.9601
948 1 -36.6646 19.3323 -66.9601
950 1 -33.4756 19.3323 -66.9601
952 1 -30.2866 19.3323 -66.9601
954 1 -27.0976 19.3323 -66.9601
956 1 -23.9086 19.3323 -66.9601
958 1 -20.7196 19.3323 -66.9601
960 1 -17.5306 19.3323 -66.9601
962 1 -14.3416 19.3323 -66.9601
964 1 -11.1526 19.3323 -66.9601
966 1 -7.96364 19.3323 -66.9601
968 1 -4.77464 19.3323 -66.9601
970 1 -1.58564 19.3323 -66.9601
972 1 1.60336 19.3323 -66.9601
974 1 4.79236 19.3323 -66.9601
976 1 7.98136 19.3323 -66.9601
978 1 11.1704 19.3323 -66.9601
980 1 14.3594 19.3323 -66.9601
982 1 17.5484 19.3323 -66.9601
984 1 20.7374 19.3323 -66.9601
986 1 23.9264 19.3323 -66.9601
988 1 27.1154 19.3323 -66.9601
990 1 30.3044 19.3323 -66.9601
992 1 33.4934 19.3323 -66.9601
994 1 36.6824 19.3323 -66.9601
996 1 39.8714 19.3323 -66.9601
998 1 43.0604 19.3323 -66.9601
1000 1 46.2494 19.3323 -66.9601
1002 1 49.4384 19.3323 -66.9601
1004 1 52.6274 19.3323 -66.9601
1006 1 55.8164 19.3323 -66.9601
1008 1 59.0054 19.3323 -66.9601
1010 1 62.1944 19.3323 -66.9601
1012 1 65.3834 19.3323 -66.9601
1014 1 68.5724 19.3323 -66.9601
1016 1 71.7614 19.3323 -66.9601
1018 1 74.9504 19.3323 -66.9601
1020 1 78.1394 19.3323 -66.9601
1022 1 81.3284 19.3323 -66.9601
1024 1 84.5174 19.3323 -66.9601
1026 1 87.7064 19.3323 -66.9601
1028 1 90.8954 19.3323 -66.9601
1030 1 94.0844 19.3323 -66.9601
1032 1 97.2734 19.3323 -66.9601
1034 1 100.462 19.3323 -66.9601
1036 1 103.651 19.3323 -66.9601
1038 1 106.84 19.3323 -66.9601
1040 1 110.029 19.3323 -66.9601
1042 1 113.218 19.3323 -66.9601
1044 1 116.407 19.3323 -66.9601
1046 1 119.596 19.3323 -66.9601
1048 1 122.785 19.3323 -66.9601
1050 1 125.974 19.3323 -66.9601
1052 1 129.163 19.3323 -66.9601
1054 1 132.352 19.3323 -66.9601
1056 1 135.541 19.3323 -66.9601
1058 1 138.73 19.3323 -66.9601
1060 1 141.919 19.3323 -66.9601
1061 1 -66.9601 22.094 -66.9601
1063 1 -63.7711 22.094 -66.9601
1065 1 -60.5821 22.094 -66.9601
1067 1 -57.3931 22.094 -66.9601
1069 1 -54.2041 22.094 -66.9601
1071 1 -51.0151 22.094 -66.9601
1073 1 -47.8261 22.094 -66.9601
1075 1 -44.6371 22.094 -66.9601
1077 1 -41.4481 22.094 -66.9601
1079 1 -38.2591 22.094 -66.9601
1081 1 -35.0701 22.094 -66.9601
1083 1 -31.8811 22.094 -66.9601
1085 1 -28.6921 22.094 -66.9601
1087 1 -25.5031 22.094 -66.9601
1089 1 -22.3141 22.094 -66.9601
1091 1 -19.1251 22.094 -66.9601
1093 1 -15.9361 22.094 -66.9601
1095 1 -12.7471 22.094 -66.9601
1097 1 -9.55814 22.094 -66.9601
1099 1 -6.36914 22.094 -66.9601
1101 1 -3.18014 22.094 -66.9601
1103 1 0.00886057 22.094 -66.9601
1105 1 3.19786 22.094 -66.9601
1107 1 6.38686 22.094 -66.9601
1109 1 9.57586 22.094 -66.9601
1111 1 12.7649 22.094 -66.9601
1113 1 15.9539 22.094 -66.9601
1115 1 19.1429 22.094 -66.9601
1117 1 22.3319 22.094 -66.9601
1119 1 25.5209 22.094 -66.9601
1121 1 28.7099 22.094 -66.9601
1123 1 31.8989 22.094 -66.9601
1125 1 35.0879 22.094 -66.9601
1127 1 38.2769 22.094 -66.9601
1129 1 41.4659 22.094 -66.9601
1131 1 44.6549 22.094 -66.9601
1133 1 47.8439 22.094 -66.9601
1135 1 51.0329 22.094 -66.9601
1137 1 54.2219 22.094 -66.9601
1139 1 57.4109 22.094 -66.9601
1141 1 60.5999 22.094 -66.9601
1143 1 63.7889 22.094 -66.9601
1145 1 66.9779 22.094 -66.9601
1147 1 70.1669 22.094 -66.9601
1149 1 73.3559 22.094 -66.9601
1151 1 76.5449 22.094 -66.9601
1153 1 79.7339 22.094 -66.9601
1155 1 82.9229 22.094 -66.9601
1157 1 86.1119 22.094 -66.9601
1159 1 89.3009 22.094 -66.9601
1161 1 92.4899 22.094 -66.9601
1163 1 95.6789 22.094 -66.9601
1165 1 98.8679 22.094 -66.9601
1167 1 102.057 22.094 -66.9601
1169 1 105.246 22.094 -66.9601
1171 1 108.435 22.094 -66.9601
1173 1 111.624 22.094 -66.9601
1175 1 114.813 22.094 -66.9601
1177 1 118.002 22.094 -66.9601
1179 1 121.191 22.094 -66.9601
1181 1 124.38 22.094 -66.9601
1183 1 127.569 22.094 -66.9601
1185 1 130.758 22.094 -66.9601
1187 1 133.947 22.094 -66.9601
1189 1 137.136 22.094 -66.9601
1191 1 140.325 22.094 -66.9601
1193 1 143.514 22.094 -66.9601
1195 1 -65.3656 24.8558 -66.9601
1197 1 -62.1766 24.8558 -66.9601
1199 1 -58.9876 24.8558 -66.9601
1201 1 -55.7986 24.8558 -66.9601
1203 1 -52.6096 24.8558 -66.9601
1205 1 -49.4206 24.8558 -66.9601
1207 1 -46.2316 24.8558 -66.9601
1209 1 -43.0426 24.8558 -66.9601
1211 1 -39.8536 24.8558 -66.9601
1213 1 -36.6646 24.8558 -66.9601
1215 1 -33.4756 24.8558 -66.9601
1217 1 -30.2866 24.8558 -66.9601
1219 1 -27.0976 24.8558 -66.9601
1221 1 -23.9086 24.8558 -66.9601
1223 1 -20.7196 24.8558 -66.9601
1225 1 -17.5306 24.8558 -66.9601
1227 1 -14.3416 24.8558 -66.9601
1229 1 -11.1526 24.8558 -66.9601
1231 1 -7.96364 24.8558 -66.9601
1233 1 -4.77464 24.8558 -66.9601
1235 1 -1.58564 24.8558 -66.9601
1237 1 1.60336 24.8558 -66.9601
1239 1 4.79236 24.8558 -66.9601
1241 1 7.98136 24.8558 -66.9601
1243 1 11.1704 24.8558 -66.9601
1245 1 14.3594 24.8558 -66.9601
1247 1 17.5484 24.8558 -66.9601
1249 1 20.7374 24.8558 -66.9601
1251 1 23.9264 24.8558 -66.9601
1253 1 27.1154 24.8558 -66.9601
1255 1 30.3044 24.8558 -66.9601
1257 1 33.4934 24.8558 -66.9601
1259 1 36.6824 24.8558 -66.9601
1261 1 39.8714 24.8558 -66.9601
1263 1 43.0604 24.8558 -66.9601
1265 1 46.2494 24.8558 -66.9601
1267 1 49.4384 24.8558 -66.9601
1269 1 52.6274 24.8558 -66.9601
1271 1 55.8164 24.8558 -66.9601
1273 1 59.0054 24.8558 -66.9601
1275 1 62.1944 24.8558 -66.9601
1277 1 65.3834 24.8558 -66.9601
1279 1 68.5724 24.8558 -66.9601
1281 1 71.7614 24.8558 -66.9601
1283 1 74.9504 24.8558 -66.9601
1285 1 78.1394 24.8558 -66.9601
1287 1 81.3284 24.8558 -66.9601
1289 1 84.5174 24.8558 -66.9601
1291 1 87.7064 24.8558 -66.9601
1293 1 90.8954 24.8558 -66.9601
1295 1 94.0844 24.8558 -66.9601
1297 1 97.2734 24.8558 -66.9601
1299 1 100.462 24.8558 -66.9601
1301 1 103.651 24.8558 -66.9601
1303 1 106.84 24.8558 -66.9601
1305 1 110.029 24.8558 -66.9601
1307 1 113.218 24.8558 -66.9601
1309 1 116.407 24.8558 -66.9601
1311 1 119.596 24.8558 -66.9601
1313 1 122.785 24.8558 -66.9601
1315 1 125.974 24.8558 -66.9601
1317 1 129.163 24.8558 -66.9601
1319 1 132.352 24.8558 -66.9601
1321 1 135.541 24.8558 -66.9601
1323 1 138.73 24.8558 -66.9601
1325 1 141.919 24.8558 -66.9601
1326 1 -66.9601 27.6176 -66.9601
1328 1 -63.7711 27.6176 -66.9601
1330 1 -60.5821 27.6176 -66.9601
1332 1 -57.3931 27.6176 -66.9601
1334 1 -54.2041 27.6176 -66.9601
1336 1 -51.0151 27.6176 -66.9601
1338 1 -47.8261 27.6176 -66.9601
1340 1 -44.6371 27.6176 -66.9601
1342 1 -41.4481 27.6176 -66.9601
1344 1 -38.2591 27.6176 -66.9601
1346 1 -35.0701 27.6176 -66.9601
1348 1 -31.8811 27.6176 -66.9601
1350 1 -28.6921 27.6176 -66.9601
1352 1 -25.5031 27.6176 -66.9601
1354 1 -22.3141 27.6176 -66.9601
1356 1 -19.1251 27.6176 -66.9601
1358 1 -15.9361 27.6176 -66.9601
1360 1 -12.7471 27.6176 -66.9601
1362 1 -9.55814 27.6176 -66.9601
1364 1 -6.36914 27.6176 -66.9601
1366 1 -3.18014 27.6176 -66.9601
1368 1 0.00886057 27.6176 -66.9601
1370 1 3.19786 27.6176 -66.9601
1372 1 6.38686 27.6176 -66.9601
1374 1 9.57586 27.6176 -66.9601
1376 1 12.7649 27.6176 -66.9601
1378 1 15.9539 27.6176 -66.9601
1380 1 19.1429 27.6176 -66.9601
1382 1 22.3319 27.6176 -66.9601
1384 1 25.5209 27.6176 -66.9601
1386 1 28.7099 27.6176 -66.9601
1388 1 31.8989 27.6176 -66.9601
1390 1 35.0879 27.6176 -66.9601
1392 1 38.2769 27.6176 -66.9601
1394 1 41.4659 27.6176 -66.9601
1396 1 44.6549 27.6176 -66.9601
1398 1 47.8439 27.6176 -66.9601
1400 1 51.0329 27.6176 -66.9601
1402 1 54.2219 27.6176 -66.9601
1404 1 57.4109 27.6176 -66.9601
1406 1 60.5999 27.6176 -66.9601
1408 1 63.7889 27.6176 -66.9601
1410 1 66.9779 27.6176 -66.9601
1412 1 70.1669 27.6176 -66.9601
1414 1 73.3559 27.6176 -66.9601
1416 1 76.5449 27.6176 -66.9601
1418 1 79.7339 27.6176 -66.9601
1420 1 82.9229 27.6176 -66.9601
1422 1 86.1119 27.6176 -66.9601
1424 1 89.3009 27.6176 -66.9601
1426 1 92.4899 27.6176 -66.9601
1428 1 95.6789 27.6176 -66.9601
1430 1 98.8679 27.6176 -66.9601
1432 1 102.057 27.6176 -66.9601
1434 1 105.246 27.6176 -66.9601
1436 1 108.435 27.6176 -66.9601
1438 1 111.624 27.6176 -66.9601
1440 1 114.813 27.6176 -66.9601
1442 1 118.002 27.6176 -66.9601
1444 1 121.191 27.6176 -66.9601
1446 1 124.38 27.6176 -66.9601
1448 1 127.569 27.6176 -66.9601
1450 1 130.758 27.6176 -66.9601
1452 1 133.947 27.6176 -66.9601
1454 1 137.136 27.6176 -66.9601
1456 1 140.325 27.6176 -66.9601
1458 1 143.514 27.6176 -66.9601
1460 1 -65.3656 30.3793 -66.9601
1462 1 -62.1766 30.3793 -66.9601
1464 1 -58.9876 30.3793 -66.9601
1466 1 -55.7986 30.3793 -66.9601
1468 1 -52.6096 30.3793 -66.9601
1470 1 -49.4206 30.3793 -66.9601
1472 1 -46.2316 30.3793 -66.9601
1474 1 -43.0426 30.3793 -66.9601
1476 1 -39.8536 30.3793 -66.9601
1478 1 -36.6646 30.3793 -66.9601
1480 1 -33.4756 30.3793 -66.9601
1482 1 -30.2866 30.3793 -66.9601
1484 1 -27.0976 30.3793 -66.9601
1486 1 -23.9086 30.3793 -66.9601
1488 1 -20.7196 30.3793 -66.9601
1490 1 -17.5306 30.3793 -66.9601
1492 1 -14.3416 30.3793 -66.9601
1494 1 -11.1526 30.3793 -66.9601
1496 1 -7.96364 30.3793 -66.9601
1498 1 -4.77464 30.3793 -66.9601
1500 1 -1.58564 30.3793 -66.9601
1502 1 1.60336 30.3793 -66.9601
1504 1 4.79236 30.3793 -66.9601
1506 1 7.98136 30.3793 -66.9601
1508 1 11.1704 30.3793 -66.9601
1510 1 14.3594 30.3793 -66.9601
1512 1 17.5484 30.3793 -66.9601
1514 1 20.7374 30.3793 -66.9601
1516 1 23.9264 30.3793 -66.9601
1518 1 27.1154 30.3793 -66.9601
1520 1 30.3044 30.3793 -66.9601
1522 1 33.4934 30.3793 -66.9601
1524 1 36.6824 30.3793 -66.9601
1526 1 39.8714 30.3793 -66.9601
1528 1 43.0604 30.3793 -66.9601
1530 1 46.2494 30.3793 -66.9601
1532 1 49.4384 30.3793 -66.9601
1534 1 52.6274 30.3793 -66.9601
1536 1 55.8164 30.3793 -66.9601
1538 1 59.0054 30.3793 -66.9601
1540 1 62.1944 30.3793 -66.9601
1542 1 65.3834 30.3793 -66.9601
1544 1 68.5724 30.3793 -66.9601
1546 1 71.7614 30.3793 -66.9601
1548 1 74.9504 30.3793 -66.9601
1550 1 78.1394 30.3793 -66.9601
1552 1 81.3284 30.3793 -66.9601
1554 1 84.5174 30.3793 -66.9601
1556 1 87.7064 30.3793 -66.9601
1558 1 90.8954 30.3793 -66.9601
1560 1 94.0844 30.3793 -66.9601
1562 1 97.2734 30.3793 -66.9601
1564 1 100.462 30.3793 -66.9601
1566 1 103.651 30.3793 -66.9601
1568 1 106.84 30.3793 -66.9601
1570 1 110.029 30.3793 -66.9601
1572 1 113.218 30.3793 -66.9601
1574 1 116.407 30.3793 -66.9601
1576 1 119.596 30.3793 -66.9601
1578 1 122.785 30.3793 -66.9601
1580 1 125.974 30.3793 -66.9601
1582 1 129.163 30.3793 -66.9601
1584 1 132.352 30.3793 -66.9601
1586 1 135.541 30.3793 -66.9601
1588 1 138.73 30.3793 -66.9601
1590 1 141.919 30.3793 -66.9601
1591 1 -66.9601 33.1411 -66.9601
1592 1 -63.7711 33.1411 -66.9601
1593 1 -60.5821 33.1411 -66.9601
1594 1 -57.3931 33.1411 -66.9601
1595 1 -54.2041 33.1411 -66.9601
1596 1 -51.0151 33.1411 -66.9601
1597 1 -47.8261 33.1411 -66.9601
1598 1 -44.6371 33.1411 -66.9601
1599 1 -41.4481 33.1411 -66.9601
1600 1 -38.2591 33.1411 -66.9601
1601 1 -35.0701 33.1411 -66.9601
1602 1 -31.8811 33.1411 -66.9601
1603 1 -28.6921 33.1411 -66.9601
1604 1 -25.5031 33.1411 -66.9601
1605 1 -22.3141 33.1411 -66.9601
1606 1 -19.1251 33.1411 -66.9601
1607 1 -15.9361 33.1411 -66.9601
1608 1 -12.7471 33.1411 -66.9601
1609 1 -9.55814 33.1411 -66.9601
1610 1 -6.36914 33.1411 -66.9601
1611 1 -3.18014 33.1411 -66.9601
1612 1 0.00886057 33.1411 -66.9601
1613 1 3.19786 33.1411 -66.9601
1614 1 6.38686 33.1411 -66.9601
1615 1 9.57586 33.1411 -66.9601
1616 1 12.7649 33.1411 -66.9601
1617 1 15.9539 33.1411 -66.9601
1618 1 19.1429 33.1411 -66.9601
1619 1 22.3319 33.1411 -66.9601
1620 1 25.5209 33.1411 -66.9601
1621 1 28.7099 33.1411 -66.9601
1622 1 31.8989 33.1411 -66.9601
1623 1 35.0879 33.1411 -66.9601
1624 1 38.2769 33.1411 -66.9601
1625 1 41.4659 33.1411 -66.9601
1626 1 44.6549 33.1411 -66.9601
1627 1 47.8439 33.1411 -66.9601
1628 1 51.0329 33.1411 -66.9601
1629 1 54.2219 33.1411 -66.9601
1630 1 57.4109 33.1411 -66.9601
1631 1 60.5999 33.1411 -66.9601
1632 1 63.7889 33.1411 -66.9601
1633 1 66.9779 33.1411 -66.9601
1634 1 70.1669 33.1411 -66.9601
1635 1 73.3559 33.1411 -66.9601
1636 1 76.5449 33.1411 -66.9601
1637 1 79.7339 33.1411 -66.9601
1638 1 82.9229 33.1411 -66.9601
1639 1 86.1119 33.1411 -66.9601
1640 1 89.3009 33.1411 -66.9601
1641 1 92.4899 33.1411 -66.9601
1642 1 95.6789 33.1411 -66.9601
1643 1 98.8679 33.1411 -66.9601
1644 1 102.057 33.1411 -66.9601
1645 1 105.246 33.1411 -66.9601
1646 1 108.435 33.1411 -66.9601
1647 1 111.624 33.1411 -66.9601
1648 1 114.813 33.1411 -66.9601
1649 1 118.002 33.1411 -66.9601
1650 1 121.191 33.1411 -66.9601
1651 1 124.38 33.1411 -66.9601
1652 1 127.569 33.1411 -66.9601
1653 1 130.758 33.1411 -66.9601
1654 1 133.947 33.1411 -66.9601
1655 1 137.136 33.1411 -66.9601
1656 1 140.325 33.1411 -66.9601
1657 1 143.514 33.1411 -66.9601
2 1 -65.3976 1.01668 -58.6755
4 1 -62.2086 1.01668 -58.6755
6 1 -59.0196 1.01668 -58.6755
8 1 -55.8306 1.01668 -58.6755
10 1 -52.6416 1.01668 -58.6755
12 1 -49.4526 1.01668 -58.6755
14 1 -46.2636 1.01668 -58.6755
16 1 -43.0746 1.01668 -58.6755
18 1 -39.8856 1.01668 -58.6755
20 1 -36.6966 1.01668 -58.6755
22 1 -33.5076 1.01668 -58.6755
24 1 -30.3186 1.01668 -58.6755
26 1 -27.1296 1.01668 -58.6755
28 1 -23.9406 1.01668 -58.6755
30 1 -20.7516 1.01668 -58.6755
32 1 -17.5626 1.01668 -58.6755
34 1 -14.3736 1.01668 -58.6755
36 1 -11.1846 1.01668 -58.6755
38 1 -7.99563 1.01668 -58.6755
40 1 -4.80663 1.01668 -58.6755
42 1 -1.61763 1.01668 -58.6755
44 1 1.57137 1.01668 -58.6755
46 1 4.76037 1.01668 -58.6755
48 1 7.94937 1.01668 -58.6755
50 1 11.1384 1.01668 -58.6755
52 1 14.3274 1.01668 -58.6755
54 1 17.5164 1.01668 -58.6755
56 1 20.7054 1.01668 -58.6755
58 1 23.8944 1.01668 -58.6755
60 1 27.0834 1.01668 -58.6755
62 1 30.2724 1.01668 -58.6755
64 1 33.4614 1.01668 -58.6755
66 1 36.6504 1.01668 -58.6755
68 1 39.8394 1.01668 -58.6755
70 1 43.0284 1.01668 -58.6755
72 1 46.2174 1.01668 -58.6755
74 1 49.4064 1.01668 -58.6755
76 1 52.5954 1.01668 -58.6755
78 1 55.7844 1.01668 -58.6755
80 1 58.9734 1.01668 -58.6755
82 1 62.1624 1.01668 -58.6755
84 1 65.3514 1.01668 -58.6755
86 1 68.5404 1.01668 -58.6755
88 1 71.7294 1.01668 -58.6755
90 1 74.9184 1.01668 -58.6755
92 1 78.1074 1.01668 -58.6755
94 1 81.2964 1.01668 -58.6755
96 1 84.4854 1.01668 -58.6755
98 1 87.6744 1.01668 -58.6755
100 1 90.8634 1.01668 -58.6755
102 1 94.0524 1.01668 -58.6755
104 1 97.2414 1.01668 -58.6755
106 1 100.43 1.01668 -58.6755
108 1 103.619 1.01668 -58.6755
110 1 106.808 1.01668 -58.6755
112 1 109.997 1.01668 -58.6755
114 1 113.186 1.01668 -58.6755
116 1 116.375 1.01668 -58.6755
118 1 119.564 1.01668 -58.6755
120 1 122.753 1.01668 -58.6755
122 1 125.942 1.01668 -58.6755
124 1 129.131 1.01668 -58.6755
126 1 132.32 1.01668 -58.6755
128 1 135.509 1.01668 -58.6755
130 1 138.698 1.01668 -58.6755
132 1 141.887 1.01668 -58.6755
134 1 -66.96 3.68225 -58.6927
136 1 -63.8031 3.77843 -58.6755
138 1 -60.6141 3.77843 -58.6755
140 1 -57.4251 3.77843 -58.6755
142 1 -54.2361 3.77843 -58.6755
144 1 -51.0471 3.77843 -58.6755
146 1 -47.8581 3.77843 -58.6755
148 1 -44.6691 3.77843 -58.6755
150 1 -41.4801 3.77843 -58.6755
152 1 -38.2911 3.77843 -58.6755
154 1 -35.1021 3.77843 -58.6755
156 1 -31.9131 3.77843 -58.6755
158 1 -28.7241 3.77843 -58.6755
160 1 -25.5351 3.77843 -58.6755
162 1 -22.3461 3.77843 -58.6755
164 1 -19.1571 3.77843 -58.6755
166 1 -15.9681 3.77843 -58.6755
168 1 -12.7791 3.77843 -58.6755
170 1 -9.59013 3.77843 -58.6755
172 1 -6.40113 3.77843 -58.6755
174 1 -3.21213 3.77843 -58.6755
176 1 -0.0231333 3.77843 -58.6755
178 1 3.16587 3.77843 -58.6755
180 1 6.35487 3.77843 -58.6755
182 1 9.54387 3.77843 -58.6755
184 1 12.7329 3.77843 -58.6755
186 1 15.9219 3.77843 -58.6755