ITEM: TIMESTEP
14500
ITEM: NUMBER OF ATOMS
14121
ITEM: BOX BOUNDS ss ss ss
-5.4102493083146264e+01 4.7969761774552546e+02
-1.0231754111503553e+00 3.5036284736177677e+01
-5.4088056782463468e+01 3.3319673624257200e+02
ITEM: ATOMS id type x y z
1 1 -54.1583 0 -54.1583
3 1 -50.9693 0 -54.1583
5 1 -47.7803 0 -54.1583
7 1 -44.5913 0 -54.1583
9 1 -41.4023 0 -54.1583
11 1 -38.2133 0 -54.1583
13 1 -35.0243 0 -54.1583
15 1 -31.8353 0 -54.1583
17 1 -28.6463 0 -54.1583
19 1 -25.4573 0 -54.1583
21 1 -22.2683 0 -54.1583
23 1 -19.0793 0 -54.1583
25 1 -15.8903 0 -54.1583
27 1 -12.7013 0 -54.1583
29 1 -9.51225 0 -54.1583
31 1 -6.32325 0 -54.1583
33 1 -3.13425 0 -54.1583
35 1 0.0547472 0 -54.1583
37 1 3.24375 0 -54.1583
39 1 6.43275 0 -54.1583
41 1 9.62175 0 -54.1583
43 1 12.8107 0 -54.1583
45 1 15.9997 0 -54.1583
47 1 19.1887 0 -54.1583
49 1 22.3777 0 -54.1583
51 1 25.5667 0 -54.1583
53 1 28.7557 0 -54.1583
55 1 31.9447 0 -54.1583
57 1 35.1337 0 -54.1583
59 1 38.3227 0 -54.1583
61 1 41.5117 0 -54.1583
63 1 44.7007 0 -54.1583
65 1 47.8897 0 -54.1583
67 1 51.0787 0 -54.1583
69 1 54.2677 0 -54.1583
71 1 57.4567 0 -54.1583
73 1 60.6457 0 -54.1583
75 1 63.8347 0 -54.1583
77 1 67.0237 0 -54.1583
79 1 70.2127 0 -54.1583
81 1 73.4017 0 -54.1583
83 1 76.5907 0 -54.1583
85 1 79.7797 0 -54.1583
87 1 82.9687 0 -54.1583
89 1 86.1577 0 -54.1583
91 1 89.3467 0 -54.1583
93 1 92.5357 0 -54.1583
95 1 95.7247 0 -54.1583
97 1 98.9137 0 -54.1583
99 1 102.103 0 -54.1583
101 1 105.292 0 -54.1583
103 1 108.481 0 -54.1583
105 1 111.67 0 -54.1583
107 1 114.859 0 -54.1583
109 1 118.048 0 -54.1583
111 1 121.237 0 -54.1583
113 1 124.426 0 -54.1583
115 1 127.615 0 -54.1583
117 1 130.804 0 -54.1583
119 1 133.993 0 -54.1583
121 1 137.182 0 -54.1583
123 1 140.371 0 -54.1583
125 1 143.56 0 -54.1583
127 1 146.749 0 -54.1583
129 1 149.938 0 -54.1583
131 1 153.127 0 -54.1583
133 1 156.316 0 -54.1583
135 1 -52.5638 2.76176 -54.1583
137 1 -49.3748 2.76176 -54.1583
139 1 -46.1858 2.76176 -54.1583
141 1 -42.9968 2.76176 -54.1583
143 1 -39.8078 2.76176 -54.1583
145 1 -36.6188 2.76176 -54.1583
147 1 -33.4298 2.76176 -54.1583
149 1 -30.2408 2.76176 -54.1583
151 1 -27.0518 2.76176 -54.1583
153 1 -23.8628 2.76176 -54.1583
155 1 -20.6738 2.76176 -54.1583
157 1 -17.4848 2.76176 -54.1583
159 1 -14.2958 2.76176 -54.1583
161 1 -11.1068 2.76176 -54.1583
163 1 -7.91775 2.76176 -54.1583
165 1 -4.72875 2.76176 -54.1583
167 1 -1.53975 2.76176 -54.1583
169 1 1.64925 2.76176 -54.1583
171 1 4.83825 2.76176 -54.1583
173 1 8.02725 2.76176 -54.1583
175 1 11.2162 2.76176 -54.1583
177 1 14.4052 2.76176 -54.1583
179 1 17.5942 2.76176 -54.1583
181 1 20.7832 2.76176 -54.1583
183 1 23.9722 2.76176 -54.1583
185 1 27.1612 2.76176 -54.1583
187 1 30.3502 2.76176 -54.1583
189 1 33.5392 2.76176 -54.1583
191 1 36.7282 2.76176 -54.1583
193 1 39.9172 2.76176 -54.1583
195 1 43.1062 2.76176 -54.1583
197 1 46.2952 2.76176 -54.1583
199 1 49.4842 2.76176 -54.1583
201 1 52.6732 2.76176 -54.1583
203 1 55.8622 2.76176 -54.1583
205 1 59.0512 2.76176 -54.1583
207 1 62.2402 2.76176 -54.1583
209 1 65.4292 2.76176 -54.1583
211 1 68.6182 2.76176 -54.1583
213 1 71.8072 2.76176 -54.1583
215 1 74.9962 2.76176 -54.1583
217 1 78.1852 2.76176 -54.1583
219 1 81.3742 2.76176 -54.1583
221 1 84.5632 2.76176 -54.1583
223 1 87.7522 2.76176 -54.1583
225 1 90.9412 2.76176 -54.1583
227 1 94.1302 2.76176 -54.1583
229 1 97.3192 2.76176 -54.1583
231 1 100.508 2.76176 -54.1583
233 1 103.697 2.76176 -54.1583
235 1 106.886 2.76176 -54.1583
237 1 110.075 2.76176 -54.1583
239 1 113.264 2.76176 -54.1583
241 1 116.453 2.76176 -54.1583
243 1 119.642 2.76176 -54.1583
245 1 122.831 2.76176 -54.1583
247 1 126.02 2.76176 -54.1583
249 1 129.209 2.76176 -54.1583
251 1 132.398 2.76176 -54.1583
253 1 135.587 2.76176 -54.1583
255 1 138.776 2.76176 -54.1583
257 1 141.965 2.76176 -54.1583
259 1 145.154 2.76176 -54.1583
261 1 148.343 2.76176 -54.1583
263 1 151.532 2.76176 -54.1583
265 1 154.721 2.76176 -54.1583
266 1 -54.1583 5.52351 -54.1583
268 1 -50.9693 5.52351 -54.1583
270 1 -47.7803 5.52351 -54.1583
272 1 -44.5913 5.52351 -54.1583
274 1 -41.4023 5.52351 -54.1583
276 1 -38.2133 5.52351 -54.1583
278 1 -35.0243 5.52351 -54.1583
280 1 -31.8353 5.52351 -54.1583
282 1 -28.6463 5.52351 -54.1583
284 1 -25.4573 5.52351 -54.1583
286 1 -22.2683 5.52351 -54.1583
288 1 -19.0793 5.52351 -54.1583
290 1 -15.8903 5.52351 -54.1583
292 1 -12.7013 5.52351 -54.1583
294 1 -9.51225 5.52351 -54.1583
296 1 -6.32325 5.52351 -54.1583
298 1 -3.13425 5.52351 -54.1583
300 1 0.0547472 5.52351 -54.1583
302 1 3.24375 5.52351 -54.1583
304 1 6.43275 5.52351 -54.1583
306 1 9.62175 5.52351 -54.1583
308 1 12.8107 5.52351 -54.1583
310 1 15.9997 5.52351 -54.1583
312 1 19.1887 5.52351 -54.1583
314 1 22.3777 5.52351 -54.1583
316 1 25.5667 5.52351 -54.1583
318 1 28.7557 5.52351 -54.1583
320 1 31.9447 5.52351 -54.1583
322 1 35.1337 5.52351 -54.1583
324 1 38.3227 5.52351 -54.1583
326 1 41.5117 5.52351 -54.1583
328 1 44.7007 5.52351 -54.1583
330 1 47.8897 5.52351 -54.1583
332 1 51.0787 5.52351 -54.1583
334 1 54.2677 5.52351 -54.1583
336 1 57.4567 5.52351 -54.1583
338 1 60.6457 5.52351 -54.1583
340 1 63.8347 5.52351 -54.1583
342 1 67.0237 5.52351 -54.1583
344 1 70.2127 5.52351 -54.1583
346 1 73.4017 5.52351 -54.1583
348 1 76.5907 5.52351 -54.1583
350 1 79.7797 5.52351 -54.1583
352 1 82.9687 5.52351 -54.1583
354 1 86.1577 5.52351 -54.1583
356 1 89.3467 5.52351 -54.1583
358 1 92.5357 5.52351 -54.1583
360 1 95.7247 5.52351 -54.1583
362 1 98.9137 5.52351 -54.1583
364 1 102.103 5.52351 -54.1583
366 1 105.292 5.52351 -54.1583
368 1 108.481 5.52351 -54.1583
370 1 111.67 5.52351 -54.1583
372 1 114.859 5.52351 -54.1583
374 1 118.048 5.52351 -54.1583
376 1 121.237 5.52351 -54.1583
378 1 124.426 5.52351 -54.1583
380 1 127.615 5.52351 -54.1583
382 1 130.804 5.52351 -54.1583
384 1 133.993 5.52351 -54.1583
386 1 137.182 5.52351 -54.1583
388 1 140.371 5.52351 -54.1583
390 1 143.56 5.52351 -54.1583
392 1 146.749 5.52351 -54.1583
394 1 149.938 5.52351 -54.1583
396 1 153.127 5.52351 -54.1583
398 1 156.316 5.52351 -54.1583
400 1 -52.5638 8.28527 -54.1583
402 1 -49.3748 8.28527 -54.1583
404 1 -46.1858 8.28527 -54.1583
406 1 -42.9968 8.28527 -54.1583
408 1 -39.8078 8.28527 -54.1583
410 1 -36.6188 8.28527 -54.1583
412 1 -33.4298 8.28527 -54.1583
414 1 -30.2408 8.28527 -54.1583
416 1 -27.0518 8.28527 -54.1583
418 1 -23.8628 8.28527 -54.1583
420 1 -20.6738 8.28527 -54.1583
422 1 -17.4848 8.28527 -54.1583
424 1 -14.2958 8.28527 -54.1583
426 1 -11.1068 8.28527 -54.1583
428 1 -7.91775 8.28527 -54.1583
430 1 -4.72875 8.28527 -54.1583
432 1 -1.53975 8.28527 -54.1583
434 1 1.64925 8.28527 -54.1583
436 1 4.83825 8.28527 -54.1583
438 1 8.02725 8.28527 -54.1583
440 1 11.2162 8.28527 -54.1583
442 1 14.4052 8.28527 -54.1583
444 1 17.5942 8.28527 -54.1583
446 1 20.7832 8.28527 -54.1583
448 1 23.9722 8.28527 -54.1583
450 1 27.1612 8.28527 -54.1583
452 1 30.3502 8.28527 -54.1583
454 1 33.5392 8.28527 -54.1583
456 1 36.7282 8.28527 -54.1583
458 1 39.9172 8.28527 -54.1583
460 1 43.1062 8.28527 -54.1583
462 1 46.2952 8.28527 -54.1583
464 1 49.4842 8.28527 -54.1583
466 1 52.6732 8.28527 -54.1583
468 1 55.8622 8.28527 -54.1583
470 1 59.0512 8.28527 -54.1583
472 1 62.2402 8.28527 -54.1583
474 1 65.4292 8.28527 -54.1583
476 1 68.6182 8.28527 -54.1583
478 1 71.8072 8.28527 -54.1583
480 1 74.9962 8.28527 -54.1583
482 1 78.1852 8.28527 -54.1583
484 1 81.3742 8.28527 -54.1583
486 1 84.5632 8.28527 -54.1583
488 1 87.7522 8.28527 -54.1583
490 1 90.9412 8.28527 -54.1583
492 1 94.1302 8.28527 -54.1583
494 1 97.3192 8.28527 -54.1583
496 1 100.508 8.28527 -54.1583
498 1 103.697 8.28527 -54.1583
500 1 106.886 8.28527 -54.1583
502 1 110.075 8.28527 -54.1583
504 1 113.264 8.28527 -54.1583
506 1 116.453 8.28527 -54.1583
508 1 119.642 8.28527 -54.1583
510 1 122.831 8.28527 -54.1583
512 1 126.02 8.28527 -54.1583
514 1 129.209 8.28527 -54.1583
516 1 132.398 8.28527 -54.1583
518 1 135.587 8.28527 -54.1583
520 1 138.776 8.28527 -54.1583
522 1 141.965 8.28527 -54.1583
524 1 145.154 8.28527 -54.1583
526 1 148.343 8.28527 -54.1583
528 1 151.532 8.28527 -54.1583
530 1 154.721 8.28527 -54.1583
531 1 -54.1583 11.047 -54.1583
533 1 -50.9693 11.047 -54.1583
535 1 -47.7803 11.047 -54.1583
537 1 -44.5913 11.047 -54.1583
539 1 -41.4023 11.047 -54.1583
541 1 -38.2133 11.047 -54.1583
543 1 -35.0243 11.047 -54.1583
545 1 -31.8353 11.047 -54.1583
547 1 -28.6463 11.047 -54.1583
549 1 -25.4573 11.047 -54.1583
551 1 -22.2683 11.047 -54.1583
553 1 -19.0793 11.047 -54.1583
555 1 -15.8903 11.047 -54.1583
557 1 -12.7013 11.047 -54.1583
559 1 -9.51225 11.047 -54.1583
561 1 -6.32325 11.047 -54.1583
563 1 -3.13425 11.047 -54.1583
565 1 0.0547472 11.047 -54.1583
567 1 3.24375 11.047 -54.1583
569 1 6.43275 11.047 -54.1583
571 1 9.62175 11.047 -54.1583
573 1 12.8107 11.047 -54.1583
575 1 15.9997 11.047 -54.1583
577 1 19.1887 11.047 -54.1583
579 1 22.3777 11.047 -54.1583
581 1 25.5667 11.047 -54.1583
583 1 28.7557 11.047 -54.1583
585 1 31.9447 11.047 -54.1583
587 1 35.1337 11.047 -54.1583
589 1 38.3227 11.047 -54.1583
591 1 41.5117 11.047 -54.1583
593 1 44.7007 11.047 -54.1583
595 1 47.8897 11.047 -54.1583
597 1 51.0787 11.047 -54.1583
599 1 54.2677 11.047 -54.1583
601 1 57.4567 11.047 -54.1583
603 1 60.6457 11.047 -54.1583
605 1 63.8347 11.047 -54.1583
607 1 67.0237 11.047 -54.1583
609 1 70.2127 11.047 -54.1583
611 1 73.4017 11.047 -54.1583
613 1 76.5907 11.047 -54.1583
615 1 79.7797 11.047 -54.1583
617 1 82.9687 11.047 -54.1583
619 1 86.1577 11.047 -54.1583
621 1 89.3467 11.047 -54.1583
623 1 92.5357 11.047 -54.1583
625 1 95.7247 11.047 -54.1583
627 1 98.9137 11.047 -54.1583
629 1 102.103 11.047 -54.1583
631 1 105.292 11.047 -54.1583
633 1 108.481 11.047 -54.1583
635 1 111.67 11.047 -54.1583
637 1 114.859 11.047 -54.1583
639 1 118.048 11.047 -54.1583
641 1 121.237 11.047 -54.1583
643 1 124.426 11.047 -54.1583
645 1 127.615 11.047 -54.1583
647 1 130.804 11.047 -54.1583
649 1 133.993 11.047 -54.1583
651 1 137.182 11.047 -54.1583
653 1 140.371 11.047 -54.1583
655 1 143.56 11.047 -54.1583
657 1 146.749 11.047 -54.1583
659 1 149.938 11.047 -54.1583
661 1 153.127 11.047 -54.1583
663 1 156.316 11.047 -54.1583
665 1 -52.5638 13.8088 -54.1583
667 1 -49.3748 13.8088 -54.1583
669 1 -46.1858 13.8088 -54.1583
671 1 -42.9968 13.8088 -54.1583
673 1 -39.8078 13.8088 -54.1583
675 1 -36.6188 13.8088 -54.1583
677 1 -33.4298 13.8088 -54.1583
679 1 -30.2408 13.8088 -54.1583
681 1 -27.0518 13.8088 -54.1583
683 1 -23.8628 13.8088 -54.1583
685 1 -20.6738 13.8088 -54.1583
687 1 -17.4848 13.8088 -54.1583
689 1 -14.2958 13.8088 -54.1583
691 1 -11.1068 13.8088 -54.1583
693 1 -7.91775 13.8088 -54.1583
695 1 -4.72875 13.8088 -54.1583
697 1 -1.53975 13.8088 -54.1583
699 1 1.64925 13.8088 -54.1583
701 1 4.83825 13.8088 -54.1583
703 1 8.02725 13.8088 -54.1583
705 1 11.2162 13.8088 -54.1583
707 1 14.4052 13.8088 -54.1583
709 1 17.5942 13.8088 -54.1583
711 1 20.7832 13.8088 -54.1583
713 1 23.9722 13.8088 -54.1583
715 1 27.1612 13.8088 -54.1583
717 1 30.3502 13.8088 -54.1583
719 1 33.5392 13.8088 -54.1583
721 1 36.7282 13.8088 -54.1583
723 1 39.9172 13.8088 -54.1583
725 1 43.1062 13.8088 -54.1583
727 1 46.2952 13.8088 -54.1583
729 1 49.4842 13.8088 -54.1583
731 1 52.6732 13.8088 -54.1583
733 1 55.8622 13.8088 -54.1583
735 1 59.0512 13.8088 -54.1583
737 1 62.2402 13.8088 -54.1583
739 1 65.4292 13.8088 -54.1583
741 1 68.6182 13.8088 -54.1583
743 1 71.8072 13.8088 -54.1583
745 1 74.9962 13.8088 -54.1583
747 1 78.1852 13.8088 -54.1583
749 1 81.3742 13.8088 -54.1583
751 1 84.5632 13.8088 -54.1583
753 1 87.7522 13.8088 -54.1583
755 1 90.9412 13.8088 -54.1583
757 1 94.1302 13.8088 -54.1583
759 1 97.3192 13.8088 -54.1583
761 1 100.508 13.8088 -54.1583
763 1 103.697 13.8088 -54.1583
765 1 106.886 13.8088 -54.1583
767 1 110.075 13.8088 -54.1583
769 1 113.264 13.8088 -54.1583
771 1 116.453 13.8088 -54.1583
773 1 119.642 13.8088 -54.1583
775 1 122.831 13.8088 -54.1583
777 1 126.02 13.8088 -54.1583
779 1 129.209 13.8088 -54.1583
781 1 132.398 13.8088 -54.1583
783 1 135.587 13.8088 -54.1583
785 1 138.776 13.8088 -54.1583
787 1 141.965 13.8088 -54.1583
789 1 145.154 13.8088 -54.1583
791 1 148.343 13.8088 -54.1583
793 1 151.532 13.8088 -54.1583
795 1 154.721 13.8088 -54.1583
796 1 -54.1583 16.5705 -54.1583
798 1 -50.9693 16.5705 -54.1583
800 1 -47.7803 16.5705 -54.1583
802 1 -44.5913 16.5705 -54.1583
804 1 -41.4023 16.5705 -54.1583
806 1 -38.2133 16.5705 -54.1583
808 1 -35.0243 16.5705 -54.1583
810 1 -31.8353 16.5705 -54.1583
812 1 -28.6463 16.5705 -54.1583
814 1 -25.4573 16.5705 -54.1583
816 1 -22.2683 16.5705 -54.1583
818 1 -19.0793 16.5705 -54.1583
820 1 -15.8903 16.5705 -54.1583
822 1 -12.7013 16.5705 -54.1583
824 1 -9.51225 16.5705 -54.1583
826 1 -6.32325 16.5705 -54.1583
828 1 -3.13425 16.5705 -54.1583
830 1 0.0547472 16.5705 -54.1583
832 1 3.24375 16.5705 -54.1583
834 1 6.43275 16.5705 -54.1583
836 1 9.62175 16.5705 -54.1583
838 1 12.8107 16.5705 -54.1583
840 1 15.9997 16.5705 -54.1583
842 1 19.1887 16.5705 -54.1583
844 1 22.3777 16.5705 -54.1583
846 1 25.5667 16.5705 -54.1583
848 1 28.7557 16.5705 -54.1583
850 1 31.9447 16.5705 -54.1583
852 1 35.1337 16.5705 -54.1583
854 1 38.3227 16.5705 -54.1583
856 1 41.5117 16.5705 -54.1583
858 1 44.7007 16.5705 -54.1583
860 1 47.8897 16.5705 -54.1583
862 1 51.0787 16.5705 -54.1583
864 1 54.2677 16.5705 -54.1583
866 1 57.4567 16.5705 -54.1583
868 1 60.6457 16.5705 -54.1583
870 1 63.8347 16.5705 -54.1583
872 1 67.0237 16.5705 -54.1583
874 1 70.2127 16.5705 -54.1583
876 1 73.4017 16.5705 -54.1583
878 1 76.5907 16.5705 -54.1583
880 1 79.7797 16.5705 -54.1583
882 1 82.9687 16.5705 -54.1583
884 1 86.1577 16.5705 -54.1583
886 1 89.3467 16.5705 -54.1583
888 1 92.5357 16.5705 -54.1583
890 1 95.7247 16.5705 -54.1583
892 1 98.9137 16.5705 -54.1583
894 1 102.103 16.5705 -54.1583
896 1 105.292 16.5705 -54.1583
898 1 108.481 16.5705 -54.1583
900 1 111.67 16.5705 -54.1583
902 1 114.859 16.5705 -54.1583
904 1 118.048 16.5705 -54.1583
906 1 121.237 16.5705 -54.1583
908 1 124.426 16.5705 -54.1583
910 1 127.615 16.5705 -54.1583
912 1 130.804 16.5705 -54.1583
914 1 133.993 16.5705 -54.1583
916 1 137.182 16.5705 -54.1583
918 1 140.371 16.5705 -54.1583
920 1 143.56 16.5705 -54.1583
922 1 146.749 16.5705 -54.1583
924 1 149.938 16.5705 -54.1583
926 1 153.127 16.5705 -54.1583
928 1 156.316 16.5705 -54.1583
930 1 -52.5638 19.3323 -54.1583
932 1 -49.3748 19.3323 -54.1583
934 1 -46.1858 19.3323 -54.1583
936 1 -42.9968 19.3323 -54.1583
938 1 -39.8078 19.3323 -54.1583
940 1 -36.6188 19.3323 -54.1583
942 1 -33.4298 19.3323 -54.1583
944 1 -30.2408 19.3323 -54.1583
946 1 -27.0518 19.3323 -54.1583
948 1 -23.8628 19.3323 -54.1583
950 1 -20.6738 19.3323 -54.1583
952 1 -17.4848 19.3323 -54.1583
954 1 -14.2958 19.3323 -54.1583
956 1 -11.1068 19.3323 -54.1583
958 1 -7.91775 19.3323 -54.1583
960 1 -4.72875 19.3323 -54.1583
962 1 -1.53975 19.3323 -54.1583
964 1 1.64925 19.3323 -54.1583
966 1 4.83825 19.3323 -54.1583
968 1 8.02725 19.3323 -54.1583
970 1 11.2162 19.3323 -54.1583
972 1 14.4052 19.3323 -54.1583
974 1 17.5942 19.3323 -54.1583
976 1 20.7832 19.3323 -54.1583
978 1 23.9722 19.3323 -54.1583
980 1 27.1612 19.3323 -54.1583
982 1 30.3502 19.3323 -54.1583
984 1 33.5392 19.3323 -54.1583
986 1 36.7282 19.3323 -54.1583
988 1 39.9172 19.3323 -54.1583
990 1 43.1062 19.3323 -54.1583
992 1 46.2952 19.3323 -54.1583
994 1 49.4842 19.3323 -54.1583
996 1 52.6732 19.3323 -54.1583
998 1 55.8622 19.3323 -54.1583
1000 1 59.0512 19.3323 -54.1583
1002 1 62.2402 19.3323 -54.1583
1004 1 65.4292 19.3323 -54.1583
1006 1 68.6182 19.3323 -54.1583
1008 1 71.8072 19.3323 -54.1583
1010 1 74.9962 19.3323 -54.1583
1012 1 78.1852 19.3323 -54.1583
1014 1 81.3742 19.3323 -54.1583
1016 1 84.5632 19.3323 -54.1583
1018 1 87.7522 19.3323 -54.1583
1020 1 90.9412 19.3323 -54.1583
1022 1 94.1302 19.3323 -54.1583
1024 1 97.3192 19.3323 -54.1583
1026 1 100.508 19.3323 -54.1583
1028 1 103.697 19.3323 -54.1583
1030 1 106.886 19.3323 -54.1583
1032 1 110.075 19.3323 -54.1583
1034 1 113.264 19.3323 -54.1583
1036 1 116.453 19.3323 -54.1583
1038 1 119.642 19.3323 -54.1583
1040 1 122.831 19.3323 -54.1583
1042 1 126.02 19.3323 -54.1583
1044 1 129.209 19.3323 -54.1583
1046 1 132.398 19.3323 -54.1583
1048 1 135.587 19.3323 -54.1583
1050 1 138.776 19.3323 -54.1583
1052 1 141.965 19.3323 -54.1583
1054 1 145.154 19.3323 -54.1583
1056 1 148.343 19.3323 -54.1583
1058 1 151.532 19.3323 -54.1583
1060 1 154.721 19.3323 -54.1583
1061 1 -54.1583 22.094 -54.1583
1063 1 -50.9693 22.094 -54.1583
1065 1 -47.7803 22.094 -54.1583
1067 1 -44.5913 22.094 -54.1583
1069 1 -41.4023 22.094 -54.1583
1071 1 -38.2133 22.094 -54.1583
1073 1 -35.0243 22.094 -54.1583
1075 1 -31.8353 22.094 -54.1583
1077 1 -28.6463 22.094 -54.1583
1079 1 -25.4573 22.094 -54.1583
1081 1 -22.2683 22.094 -54.1583
1083 1 -19.0793 22.094 -54.1583
1085 1 -15.8903 22.094 -54.1583
1087 1 -12.7013 22.094 -54.1583
1089 1 -9.51225 22.094 -54.1583
1091 1 -6.32325 22.094 -54.1583
1093 1 -3.13425 22.094 -54.1583
1095 1 0.0547472 22.094 -54.1583
1097 1 3.24375 22.094 -54.1583
1099 1 6.43275 22.094 -54.1583
1101 1 9.62175 22.094 -54.1583
1103 1 12.8107 22.094 -54.1583
1105 1 15.9997 22.094 -54.1583
1107 1 19.1887 22.094 -54.1583
1109 1 22.3777 22.094 -54.1583
1111 1 25.5667 22.094 -54.1583
1113 1 28.7557 22.094 -54.1583
1115 1 31.9447 22.094 -54.1583
1117 1 35.1337 22.094 -54.1583
1119 1 38.3227 22.094 -54.1583
1121 1 41.5117 22.094 -54.1583
1123 1 44.7007 22.094 -54.1583
1125 1 47.8897 22.094 -54.1583
1127 1 51.0787 22.094 -54.1583
1129 1 54.2677 22.094 -54.1583
1131 1 57.4567 22.094 -54.1583
1133 1 60.6457 22.094 -54.1583
1135 1 63.8347 22.094 -54.1583
1137 1 67.0237 22.094 -54.1583
1139 1 70.2127 22.094 -54.1583
1141 1 73.4017 22.094 -54.1583
1143 1 76.5907 22.094 -54.1583
1145 1 79.7797 22.094 -54.1583
1147 1 82.9687 22.094 -54.1583
1149 1 86.1577 22.094 -54.1583
1151 1 89.3467 22.094 -54.1583
1153 1 92.5357 22.094 -54.1583
1155 1 95.7247 22.094 -54.1583
1157 1 98.9137 22.094 -54.1583
1159 1 102.103 22.094 -54.1583
1161 1 105.292 22.094 -54.1583
1163 1 108.481 22.094 -54.1583
1165 1 111.67 22.094 -54.1583
1167 1 114.859 22.094 -54.1583
1169 1 118.048 22.094 -54.1583
1171 1 121.237 22.094 -54.1583
1173 1 124.426 22.094 -54.1583
1175 1 127.615 22.094 -54.1583
1177 1 130.804 22.094 -54.1583
1179 1 133.993 22.094 -54.1583
1181 1 137.182 22.094 -54.1583
1183 1 140.371 22.094 -54.1583
1185 1 143.56 22.094 -54.1583
1187 1 146.749 22.094 -54.1583
1189 1 149.938 22.094 -54.1583
1191 1 153.127 22.094 -54.1583
1193 1 156.316 22.094 -54.1583
1195 1 -52.5638 24.8558 -54.1583
1197 1 -49.3748 24.8558 -54.1583
1199 1 -46.1858 24.8558 -54.1583
1201 1 -42.9968 24.8558 -54.1583
1203 1 -39.8078 24.8558 -54.1583
1205 1 -36.6188 24.8558 -54.1583
1207 1 -33.4298 24.8558 -54.1583
1209 1 -30.2408 24.8558 -54.1583
1211 1 -27.0518 24.8558 -54.1583
1213 1 -23.8628 24.8558 -54.1583
1215 1 -20.6738 24.8558 -54.1583
1217 1 -17.4848 24.8558 -54.1583
1219 1 -14.2958 24.8558 -54.1583
1221 1 -11.1068 24.8558 -54.1583
1223 1 -7.91775 24.8558 -54.1583
1225 1 -4.72875 24.8558 -54.1583
1227 1 -1.53975 24.8558 -54.1583
1229 1 1.64925 24.8558 -54.1583
1231 1 4.83825 24.8558 -54.1583
1233 1 8.02725 24.8558 -54.1583
1235 1 11.2162 24.8558 -54.1583
1237 1 14.4052 24.8558 -54.1583
1239 1 17.5942 24.8558 -54.1583
1241 1 20.7832 24.8558 -54.1583
1243 1 23.9722 24.8558 -54.1583
1245 1 27.1612 24.8558 -54.1583
1247 1 30.3502 24.8558 -54.1583
1249 1 33.5392 24.8558 -54.1583
1251 1 36.7282 24.8558 -54.1583
1253 1 39.9172 24.8558 -54.1583
1255 1 43.1062 24.8558 -54.1583
1257 1 46.2952 24.8558 -54.1583
1259 1 49.4842 24.8558 -54.1583
1261 1 52.6732 24.8558 -54.1583
1263 1 55.8622 24.8558 -54.1583
1265 1 59.0512 24.8558 -54.1583
1267 1 62.2402 24.8558 -54.1583
1269 1 65.4292 24.8558 -54.1583
1271 1 68.6182 24.8558 -54.1583
1273 1 71.8072 24.8558 -54.1583
1275 1 74.9962 24.8558 -54.1583
1277 1 78.1852 24.8558 -54.1583
1279 1 81.3742 24.8558 -54.1583
1281 1 84.5632 24.8558 -54.1583
1283 1 87.7522 24.8558 -54.1583
1285 1 90.9412 24.8558 -54.1583
1287 1 94.1302 24.8558 -54.1583
1289 1 97.3192 24.8558 -54.1583
1291 1 100.508 24.8558 -54.1583
1293 1 103.697 24.8558 -54.1583
1295 1 106.886 24.8558 -54.1583
1297 1 110.075 24.8558 -54.1583
1299 1 113.264 24.8558 -54.1583
1301 1 116.453 24.8558 -54.1583
1303 1 119.642 24.8558 -54.1583
1305 1 122.831 24.8558 -54.1583
1307 1 126.02 24.8558 -54.1583
1309 1 129.209 24.8558 -54.1583
1311 1 132.398 24.8558 -54.1583
1313 1 135.587 24.8558 -54.1583
1315 1 138.776 24.8558 -54.1583
1317 1 141.965 24.8558 -54.1583
1319 1 145.154 24.8558 -54.1583
1321 1 148.343 24.8558 -54.1583
1323 1 151.532 24.8558 -54.1583
1325 1 154.721 24.8558 -54.1583
1326 1 -54.1583 27.6176 -54.1583
1328 1 -50.9693 27.6176 -54.1583
1330 1 -47.7803 27.6176 -54.1583
1332 1 -44.5913 27.6176 -54.1583
1334 1 -41.4023 27.6176 -54.1583
1336 1 -38.2133 27.6176 -54.1583
1338 1 -35.0243 27.6176 -54.1583
1340 1 -31.8353 27.6176 -54.1583
1342 1 -28.6463 27.6176 -54.1583
1344 1 -25.4573 27.6176 -54.1583
1346 1 -22.2683 27.6176 -54.1583
1348 1 -19.0793 27.6176 -54.1583
1350 1 -15.8903 27.6176 -54.1583
1352 1 -12.7013 27.6176 -54.1583
1354 1 -9.51225 27.6176 -54.1583
1356 1 -6.32325 27.6176 -54.1583
1358 1 -3.13425 27.6176 -54.1583
1360 1 0.0547472 27.6176 -54.1583
1362 1 3.24375 27.6176 -54.1583
1364 1 6.43275 27.6176 -54.1583
1366 1 9.62175 27.6176 -54.1583
1368 1 12.8107 27.6176 -54.1583
1370 1 15.9997 27.6176 -54.1583
1372 1 19.1887 27.6176 -54.1583
1374 1 22.3777 27.6176 -54.1583
1376 1 25.5667 27.6176 -54.1583
1378 1 28.7557 27.6176 -54.1583
1380 1 31.9447 27.6176 -54.1583
1382 1 35.1337 27.6176 -54.1583
1384 1 38.3227 27.6176 -54.1583
1386 1 41.5117 27.6176 -54.1583
1388 1 44.7007 27.6176 -54.1583
1390 1 47.8897 27.6176 -54.1583
1392 1 51.0787 27.6176 -54.1583
1394 1 54.2677 27.6176 -54.1583
1396 1 57.4567 27.6176 -54.1583
1398 1 60.6457 27.6176 -54.1583
1400 1 63.8347 27.6176 -54.1583
1402 1 67.0237 27.6176 -54.1583
1404 1 70.2127 27.6176 -54.1583
1406 1 73.4017 27.6176 -54.1583
1408 1 76.5907 27.6176 -54.1583
1410 1 79.7797 27.6176 -54.1583
1412 1 82.9687 27.6176 -54.1583
1414 1 86.1577 27.6176 -54.1583
1416 1 89.3467 27.6176 -54.1583
1418 1 92.5357 27.6176 -54.1583
1420 1 95.7247 27.6176 -54.1583
1422 1 98.9137 27.6176 -54.1583
1424 1 102.103 27.6176 -54.1583
1426 1 105.292 27.6176 -54.1583
1428 1 108.481 27.6176 -54.1583
1430 1 111.67 27.6176 -54.1583
1432 1 114.859 27.6176 -54.1583
1434 1 118.048 27.6176 -54.1583
1436 1 121.237 27.6176 -54.1583
1438 1 124.426 27.6176 -54.1583
1440 1 127.615 27.6176 -54.1583
1442 1 130.804 27.6176 -54.1583
1444 1 133.993 27.6176 -54.1583
1446 1 137.182 27.6176 -54.1583
1448 1 140.371 27.6176 -54.1583
1450 1 143.56 27.6176 -54.1583
1452 1 146.749 27.6176 -54.1583
1454 1 149.938 27.6176 -54.1583
1456 1 153.127 27.6176 -54.1583
1458 1 156.316 27.6176 -54.1583
1460 1 -52.5638 30.3793 -54.1583
1462 1 -49.3748 30.3793 -54.1583
1464 1 -46.1858 30.3793 -54.1583
1466 1 -42.9968 30.3793 -54.1583
1468 1 -39.8078 30.3793 -54.1583
1470 1 -36.6188 30.3793 -54.1583
1472 1 -33.4298 30.3793 -54.1583
1474 1 -30.2408 30.3793 -54.1583
1476 1 -27.0518 30.3793 -54.1583
1478 1 -23.8628 30.3793 -54.1583
1480 1 -20.6738 30.3793 -54.1583
1482 1 -17.4848 30.3793 -54.1583
1484 1 -14.2958 30.3793 -54.1583
1486 1 -11.1068 30.3793 -54.1583
1488 1 -7.91775 30.3793 -54.1583
1490 1 -4.72875 30.3793 -54.1583
1492 1 -1.53975 30.3793 -54.1583
1494 1 1.64925 30.3793 -54.1583
1496 1 4.83825 30.3793 -54.1583
1498 1 8.02725 30.3793 -54.1583
1500 1 11.2162 30.3793 -54.1583
1502 1 14.4052 30.3793 -54.1583
1504 1 17.5942 30.3793 -54.1583
1506 1 20.7832 30.3793 -54.1583
1508 1 23.9722 30.3793 -54.1583
1510 1 27.1612 30.3793 -54.1583
1512 1 30.3502 30.3793 -54.1583
1514 1 33.5392 30.3793 -54.1583
1516 1 36.7282 30.3793 -54.1583
1518 1 39.9172 30.3793 -54.1583
1520 1 43.1062 30.3793 -54.1583
1522 1 46.2952 30.3793 -54.1583
1524 1 49.4842 30.3793 -54.1583
1526 1 52.6732 30.3793 -54.1583
1528 1 55.8622 30.3793 -54.1583
1530 1 59.0512 30.3793 -54.1583
1532 1 62.2402 30.3793 -54.1583
1534 1 65.4292 30.3793 -54.1583
1536 1 68.6182 30.3793 -54.1583
1538 1 71.8072 30.3793 -54.1583
1540 1 74.9962 30.3793 -54.1583
1542 1 78.1852 30.3793 -54.1583
1544 1 81.3742 30.3793 -54.1583
1546 1 84.5632 30.3793 -54.1583
1548 1 87.7522 30.3793 -54.1583
1550 1 90.9412 30.3793 -54.1583
1552 1 94.1302 30.3793 -54.1583
1554 1 97.3192 30.3793 -54.1583
1556 1 100.508 30.3793 -54.1583
1558 1 103.697 30.3793 -54.1583
1560 1 106.886 30.3793 -54.1583
1562 1 110.075 30.3793 -54.1583
1564 1 113.264 30.3793 -54.1583
1566 1 116.453 30.3793 -54.1583
1568 1 119.642 30.3793 -54.1583
1570 1 122.831 30.3793 -54.1583
1572 1 126.02 30.3793 -54.1583
1574 1 129.209 30.3793 -54.1583
1576 1 132.398 30.3793 -54.1583
1578 1 135.587 30.3793 -54.1583
1580 1 138.776 30.3793 -54.1583
1582 1 141.965 30.3793 -54.1583
1584 1 145.154 30.3793 -54.1583
1586 1 148.343 30.3793 -54.1583
1588 1 151.532 30.3793 -54.1583
1590 1 154.721 30.3793 -54.1583
1591 1 -54.1583 33.1411 -54.1583
1592 1 -50.9693 33.1411 -54.1583
1593 1 -47.7803 33.1411 -54.1583
1594 1 -44.5913 33.1411 -54.1583
1595 1 -41.4023 33.1411 -54.1583
1596 1 -38.2133 33.1411 -54.1583
1597 1 -35.0243 33.1411 -54.1583
1598 1 -31.8353 33.1411 -54.1583
1599 1 -28.6463 33.1411 -54.1583
1600 1 -25.4573 33.1411 -54.1583
1601 1 -22.2683 33.1411 -54.1583
1602 1 -19.0793 33.1411 -54.1583
1603 1 -15.8903 33.1411 -54.1583
1604 1 -12.7013 33.1411 -54.1583
1605 1 -9.51225 33.1411 -54.1583
1606 1 -6.32325 33.1411 -54.1583
1607 1 -3.13425 33.1411 -54.1583
1608 1 0.0547472 33.1411 -54.1583
1609 1 3.24375 33.1411 -54.1583
1610 1 6.43275 33.1411 -54.1583
1611 1 9.62175 33.1411 -54.1583
1612 1 12.8107 33.1411 -54.1583
1613 1 15.9997 33.1411 -54.1583
1614 1 19.1887 33.1411 -54.1583
1615 1 22.3777 33.1411 -54.1583
1616 1 25.5667 33.1411 -54.1583
1617 1 28.7557 33.1411 -54.1583
1618 1 31.9447 33.1411 -54.1583
1619 1 35.1337 33.1411 -54.1583
1620 1 38.3227 33.1411 -54.1583
1621 1 41.5117 33.1411 -54.1583
1622 1 44.7007 33.1411 -54.1583
1623 1 47.8897 33.1411 -54.1583
1624 1 51.0787 33.1411 -54.1583
1625 1 54.2677 33.1411 -54.1583
1626 1 57.4567 33.1411 -54.1583
1627 1 60.6457 33.1411 -54.1583
1628 1 63.8347 33.1411 -54.1583
1629 1 67.0237 33.1411 -54.1583
1630 1 70.2127 33.1411 -54.1583
1631 1 73.4017 33.1411 -54.1583
1632 1 76.5907 33.1411 -54.1583
1633 1 79.7797 33.1411 -54.1583
1634 1 82.9687 33.1411 -54.1583
1635 1 86.1577 33.1411 -54.1583
1636 1 89.3467 33.1411 -54.1583
1637 1 92.5357 33.1411 -54.1583
1638 1 95.7247 33.1411 -54.1583
1639 1 98.9137 33.1411 -54.1583
1640 1 102.103 33.1411 -54.1583
1641 1 105.292 33.1411 -54.1583
1642 1 108.481 33.1411 -54.1583
1643 1 111.67 33.1411 -54.1583
1644 1 114.859 33.1411 -54.1583
1645 1 118.048 33.1411 -54.1583
1646 1 121.237 33.1411 -54.1583
1647 1 124.426 33.1411 -54.1583
1648 1 127.615 33.1411 -54.1583
1649 1 130.804 33.1411 -54.1583
1650 1 133.993 33.1411 -54.1583
1651 1 137.182 33.1411 -54.1583
1652 1 140.371 33.1411 -54.1583
1653 1 143.56 33.1411 -54.1583
1654 1 146.749 33.1411 -54.1583
1655 1 149.938 33.1411 -54.1583
1656 1 153.127 33.1411 -54.1583
1657 1 156.316 33.1411 -54.1583
2 1 -52.5957 1.01668 -45.8736
4 1 -49.4067 1.01668 -45.8736
6 1 -46.2177 1.01668 -45.8736
8 1 -43.0287 1.01668 -45.8736
10 1 -39.8397 1.01668 -45.8736
12 1 -36.6507 1.01668 -45.8736
14 1 -33.4617 1.01668 -45.8736
16 1 -30.2727 1.01668 -45.8736
18 1 -27.0837 1.01668 -45.8736
20 1 -23.8947 1.01668 -45.8736
22 1 -20.7057 1.01668 -45.8736
24 1 -17.5167 1.01668 -45.8736
26 1 -14.3277 1.01668 -45.8736
28 1 -11.1387 1.01668 -45.8736
30 1 -7.94975 1.01668 -45.8736
32 1 -4.76075 1.01668 -45.8736
34 1 -1.57175 1.01668 -45.8736
36 1 1.61725 1.01668 -45.8736
38 1 4.80625 1.01668 -45.8736
40 1 7.99525 1.01668 -45.8736
42 1 11.1843 1.01668 -45.8736
44 1 14.3733 1.01668 -45.8736
46 1 17.5623 1.01668 -45.8736
48 1 20.7513 1.01668 -45.8736
50 1 23.9403 1.01668 -45.8736
52 1 27.1293 1.01668 -45.8736
54 1 30.3183 1.01668 -45.8736
56 1 33.5073 1.01668 -45.8736
58 1 36.6963 1.01668 -45.8736
60 1 39.8853 1.01668 -45.8736
62 1 43.0743 1.01668 -45.8736
64 1 46.2633 1.01668 -45.8736
66 1 49.4523 1.01668 -45.8736
68 1 52.6413 1.01668 -45.8736
70 1 55.8303 1.01668 -45.8736
72 1 59.0193 1.01668 -45.8736
74 1 62.2083 1.01668 -45.8736
76 1 65.3973 1.01668 -45.8736
78 1 68.5863 1.01668 -45.8736
80 1 71.7753 1.01668 -45.8736
82 1 74.9643 1.01668 -45.8736
84 1 78.1533 1.01668 -45.8736
86 1 81.3423 1.01668 -45.8736
88 1 84.5313 1.01668 -45.8736
90 1 87.7203 1.01668 -45.8736
92 1 90.9093 1.01668 -45.8736
94 1 94.0983 1.01668 -45.8736
96 1 97.2873 1.01668 -45.8736
98 1 100.476 1.01668 -45.8736
100 1 103.665 1.01668 -45.8736
102 1 106.854 1.01668 -45.8736
104 1 110.043 1.01668 -45.8736
106 1 113.232 1.01668 -45.8736
108 1 116.421 1.01668 -45.8736
110 1 119.61 1.01668 -45.8736
112 1 122.799 1.01668 -45.8736
114 1 125.988 1.01668 -45.8736
116 1 129.177 1.01668 -45.8736
118 1 132.366 1.01668 -45.8736
120 1 135.555 1.01668 -45.8736
122 1 138.744 1.01668 -45.8736
124 1 141.933 1.01668 -45.8736
126 1 145.122 1.01668 -45.8736
128 1 148.311 1.01668 -45.8736
130 1 151.5 1.01668 -45.8736
132 1 154.689 1.01668 -45.8736
134 1 -54.1581 3.68225 -45.8908
136 1 -51.0012 3.77843 -45.8736
138 1 -47.8122 3.77843 -45.8736
140 1 -44.6232 3.77843 -45.8736
142 1 -41.4342 3.77843 -45.8736
144 1 -38.2452 3.77843 -45.8736
146 1 -35.0562 3.77843 -45.8736
148 1 -31.8672 3.77843 -45.8736
150 1 -28.6782 3.77843 -45.8736
152 1 -25.4892 3.77843 -45.8736
154 1 -22.3002 3.77843 -45.8736
156 1 -19.1112 3.77843 -45.8736
158 1 -15.9222 3.77843 -45.8736
160 1 -12.7332 3.77843 -45.8736
162 1 -9.54425 3.77843 -45.8736
164 1 -6.35525 3.77843 -45.8736
166 1 -3.16625 3.77843 -45.8736
168 1 0.0227533 3.77843 -45.8736
170 1 3.21175 3.77843 -45.8736
172 1 6.40075 3.77843 -45.8736
174 1 9.58975 3.77843 -45.8736
176 1 12.7788 3.77843 -45.8736
178 1 15.9678 3.77843 -45.8736
180 1 19.1568 3.77843 -45.8736
182 1 22.3458 3.77843 -45.8736
184 1 25.5348 3.77843 -45.8736
186 1 28.7238 3.77843 -45.8736
188 1 31.9128 3.77843 -45.8736
190 1 35.1018 3.77843 -45.8736