LAMMPS Description

2500 atoms
1250 bonds
6 atom types
3 bond types

0 40.00 xlo xhi
0 20.00 ylo yhi
0 20.00 zlo zhi

Masses

1 135.3270
2 45.8670
3 13.9990
4 2.0000
5 2.0000
6 2.0000

Atoms

1 1 1 5.0420 0.0000 0.0000 0.0000
2 1 4 -2.8700 39.9532 19.9968 19.9827
3 3 2 4.6160 2.0000 2.0000 2.0000
4 3 5 -1.5440 2.0460 2.0127 2.0150
5 5 3 0.9700 2.0000 2.0000 0.0000
6 5 6 -2.7180 1.9814 1.9557 0.0139
7 7 3 0.9700 2.0000 0.0000 2.0000
8 7 6 -2.7180 1.9854 0.0463 1.9878
9 9 3 0.9700 0.0000 2.0000 2.0000
10 9 6 -2.7180 39.9708 1.9920 2.0398
11 11 1 5.0420 0.0000 0.0000 4.0000
12 11 4 -2.8700 39.9821 19.9970 3.9534
13 13 2 4.6160 2.0000 2.0000 6.0000
14 13 5 -1.5440 2.0101 1.9682 5.9628
15 15 3 0.9700 2.0000 2.0000 4.0000
16 15 6 -2.7180 2.0491 2.0092 3.9991
17 17 3 0.9700 2.0000 0.0000 6.0000
18 17 6 -2.7180 2.0417 0.0145 6.0234
19 19 3 0.9700 0.0000 2.0000 6.0000
20 19 6 -2.7180 0.0473 1.9918 5.9862
21 21 1 5.0420 0.0000 0.0000 8.0000
22 21 4 -2.8700 39.9573 19.9750 7.9927
23 23 2 4.6160 2.0000 2.0000 10.0000
24 23 5 -1.5440 1.9876 2.0438 10.0207
25 25 3 0.9700 2.0000 2.0000 8.0000
26 25 6 -2.7180 1.9720 1.9923 8.0407
27 27 3 0.9700 2.0000 0.0000 10.0000
28 27 6 -2.7180 1.9849 19.9541 9.9873
29 29 3 0.9700 0.0000 2.0000 10.0000
30 29 6 -2.7180 0.0251 1.9710 9.9680
31 31 1 5.0420 0.0000 0.0000 12.0000
32 31 4 -2.8700 39.9885 0.0397 12.0281
33 33 2 4.6160 2.0000 2.0000 14.0000
34 33 5 -1.5440 1.9816 1.9817 13.9573
35 35 3 0.9700 2.0000 2.0000 12.0000
36 35 6 -2.7180 2.0487 1.9954 11.9895
37 37 3 0.9700 2.0000 0.0000 14.0000
38 37 6 -2.7180 2.0056 19.9595 13.9713
39 39 3 0.9700 0.0000 2.0000 14.0000
40 39 6 -2.7180 0.0044 1.9923 13.9508
41 41 1 5.0420 0.0000 0.0000 16.0000
42 41 4 -2.8700 39.9713 0.0098 16.0398
43 43 2 4.6160 2.0000 2.0000 18.0000
44 43 5 -1.5440 2.0087 2.0142 17.9529
45 45 3 0.9700 2.0000 2.0000 16.0000
46 45 6 -2.7180 2.0098 2.0252 15.9580
47 47 3 0.9700 2.0000 0.0000 18.0000
48 47 6 -2.7180 2.0268 19.9578 17.9988
49 49 3 0.9700 0.0000 2.0000 18.0000
50 49 6 -2.7180 39.9932 2.0487 17.9908
51 51 1 5.0420 0.0000 4.0000 0.0000
52 51 4 -2.8700 0.0486 3.9959 19.9892
53 53 2 4.6160 2.0000 6.0000 2.0000
54 53 5 -1.5440 2.0497 5.9996 1.9945
55 55 3 0.9700 2.0000 6.0000 0.0000
56 55 6 -2.7180 2.0041 5.9718 19.9589
57 57 3 0.9700 2.0000 4.0000 2.0000
58 57 6 -2.7180 1.9755 4.0027 2.0435
59 59 3 0.9700 0.0000 6.0000 2.0000
60 59 6 -2.7180 0.0342 6.0136 2.0338
61 61 1 5.0420 0.0000 4.0000 4.0000
62 61 4 -2.8700 0.0457 4.0114 4.0168
63 63 2 4.6160 2.0000 6.0000 6.0000
64 63 5 -1.5440 1.9910 6.0358 5.9663
65 65 3 0.9700 2.0000 6.0000 4.0000
66 65 6 -2.7180 1.9846 5.9601 3.9741
67 67 3 0.9700 2.0000 4.0000 6.0000
68 67 6 -2.7180 2.0486 3.9950 5.9896
69 69 3 0.9700 0.0000 6.0000 6.0000
70 69 6 -2.7180 0.0458 5.9860 6.0142
71 71 1 5.0420 0.0000 4.0000 8.0000
72 71 4 -2.8700 0.0254 3.9601 7.9837
73 73 2 4.6160 2.0000 6.0000 10.0000
74 73 5 -1.5440 2.0451 6.0032 10.0213
75 75 3 0.9700 2.0000 6.0000 8.0000
76 75 6 -2.7180 2.0454 6.0205 8.0045
77 77 3 0.9700 2.0000 4.0000 10.0000
78 77 6 -2.7180 2.0296 3.9709 10.0279
79 79 3 0.9700 0.0000 6.0000 10.0000
80 79 6 -2.7180 39.9578 5.9746 9.9914
81 81 1 5.0420 0.0000 4.0000 12.0000
82 81 4 -2.8700 39.9976 3.9549 12.0215
83 83 2 4.6160 2.0000 6.0000 14.0000
84 83 5 -1.5440 1.9976 5.9662 13.9632
85 85 3 0.9700 2.0000 6.0000 12.0000
86 85 6 -2.7180 1.9625 5.9673 11.9951
87 87 3 0.9700 2.0000 4.0000 14.0000
88 87 6 -2.7180 1.9955 3.9507 13.9929
89 89 3 0.9700 0.0000 6.0000 14.0000
90 89 6 -2.7180 39.9808 6.0052 14.0459
91 91 1 5.0420 0.0000 4.0000 16.0000
92 91 4 -2.8700 0.0446 3.9788 16.0075
93 93 2 4.6160 2.0000 6.0000 18.0000
94 93 5 -1.5440 1.9856 5.9614 17.9717
95 95 3 0.9700 2.0000 6.0000 16.0000
96 95 6 -2.7180 2.0444 5.9782 16.0076
97 97 3 0.9700 2.0000 4.0000 18.0000
98 97 6 -2.7180 2.0160 3.9732 17.9609
99 99 3 0.9700 0.0000 6.0000 18.0000
100 99 6 -2.7180 0.0380 6.0190 17.9737
101 101 1 5.0420 0.0000 8.0000 0.0000
102 101 4 -2.8700 0.0455 8.0127 19.9836
103 103 2 4.6160 2.0000 10.0000 2.0000
104 103 5 -1.5440 1.9828 9.9804 1.9573
105 105 3 0.9700 2.0000 10.0000 0.0000
106 105 6 -2.7180 2.0383 9.9681 0.0038
107 107 3 0.9700 2.0000 8.0000 2.0000
108 107 6 -2.7180 2.0002 7.9503 1.9944
109 109 3 0.9700 0.0000 10.0000 2.0000
110 109 6 -2.7180 0.0177 10.0465 2.0051
111 111 1 5.0420 0.0000 8.0000 4.0000
112 111 4 -2.8700 0.0157 8.0474 3.9971
113 113 2 4.6160 2.0000 10.0000 6.0000
114 113 5 -1.5440 1.9837 9.9594 6.0241
115 115 3 0.9700 2.0000 10.0000 4.0000
116 115 6 -2.7180 1.9832 10.0470 4.0024
117 117 3 0.9700 2.0000 8.0000 6.0000
118 117 6 -2.7180 1.9913 7.9637 5.9668
119 119 3 0.9700 0.0000 10.0000 6.0000
120 119 6 -2.7180 39.9567 10.0206 5.9856
121 121 1 5.0420 0.0000 8.0000 8.0000
122 121 4 -2.8700 0.0174 7.9541 8.0094
123 123 2 4.6160 2.0000 10.0000 10.0000
124 123 5 -1.5440 1.9750 9.9572 9.9936
125 125 3 0.9700 2.0000 10.0000 8.0000
126 125 6 -2.7180 2.0179 10.0300 8.0358
127 127 3 0.9700 2.0000 8.0000 10.0000
128 127 6 -2.7180 1.9941 7.9850 10.0473
129 129 3 0.9700 0.0000 10.0000 10.0000
130 129 6 -2.7180 39.9728 9.9652 10.0235
131 131 1 5.0420 0.0000 8.0000 12.0000
132 131 4 -2.8700 39.9729 7.9832 11.9615
133 133 2 4.6160 2.0000 10.0000 14.0000
134 133 5 -1.5440 1.9917 9.9534 14.0161
135 135 3 0.9700 2.0000 10.0000 12.0000
136 135 6 -2.7180 2.0113 9.9570 11.9771
137 137 3 0.9700 2.0000 8.0000 14.0000
138 137 6 -2.7180 1.9677 8.0095 13.9630
139 139 3 0.9700 0.0000 10.0000 14.0000
140 139 6 -2.7180 0.0127 9.9602 14.0275
141 141 1 5.0420 0.0000 8.0000 16.0000
142 141 4 -2.8700 39.9960 7.9504 16.0046
143 143 2 4.6160 2.0000 10.0000 18.0000
144 143 5 -1.5440 2.0296 10.0396 18.0072
145 145 3 0.9700 2.0000 10.0000 16.0000
146 145 6 -2.7180 2.0278 10.0130 16.0395
147 147 3 0.9700 2.0000 8.0000 18.0000
148 147 6 -2.7180 2.0190 8.0342 18.0311
149 149 3 0.9700 0.0000 10.0000 18.0000
150 149 6 -2.7180 0.0191 10.0284 18.0364
151 151 1 5.0420 0.0000 12.0000 0.0000
152 151 4 -2.8700 39.9766 11.9693 0.0317
153 153 2 4.6160 2.0000 14.0000 2.0000
154 153 5 -1.5440 2.0376 13.9671 1.9981
155 155 3 0.9700 2.0000 14.0000 0.0000
156 155 6 -2.7180 2.0419 13.9738 0.0075
157 157 3 0.9700 2.0000 12.0000 2.0000
158 157 6 -2.7180 1.9516 12.0061 2.0108
159 159 3 0.9700 0.0000 14.0000 2.0000
160 159 6 -2.7180 39.9906 14.0486 1.9930
161 161 1 5.0420 0.0000 12.0000 4.0000
162 161 4 -2.8700 0.0362 12.0334 3.9916
163 163 2 4.6160 2.0000 14.0000 6.0000
164 163 5 -1.5440 2.0127 14.0103 6.0472
165 165 3 0.9700 2.0000 14.0000 4.0000
166 165 6 -2.7180 2.0421 14.0269 4.0009
167 167 3 0.9700 2.0000 12.0000 6.0000
168 167 6 -2.7180 1.9768 11.9664 6.0288
169 169 3 0.9700 0.0000 14.0000 6.0000
170 169 6 -2.7180 0.0495 14.0067 5.9983
171 171 1 5.0420 0.0000 12.0000 8.0000
172 171 4 -2.8700 0.0241 11.9567 7.9933
173 173 2 4.6160 2.0000 14.0000 10.0000
174 173 5 -1.5440 1.9511 14.0105 10.0007
175 175 3 0.9700 2.0000 14.0000 8.0000
176 175 6 -2.7180 2.0085 13.9890 7.9520
177 177 3 0.9700 2.0000 12.0000 10.0000
178 177 6 -2.7180 2.0413 11.9728 10.0075
179 179 3 0.9700 0.0000 14.0000 10.0000
180 179 6 -2.7180 0.0344 14.0207 9.9702
181 181 1 5.0420 0.0000 12.0000 12.0000
182 181 4 -2.8700 39.9876 11.9897 12.0473
183 183 2 4.6160 2.0000 14.0000 14.0000
184 183 5 -1.5440 2.0329 13.9728 13.9740
185 185 3 0.9700 2.0000 14.0000 12.0000
186 185 6 -2.7180 2.0272 13.9998 12.0419
187 187 3 0.9700 2.0000 12.0000 14.0000
188 187 6 -2.7180 1.9692 11.9607 13.9977
189 189 3 0.9700 0.0000 14.0000 14.0000
190 189 6 -2.7180 0.0443 14.0227 13.9958
191 191 1 5.0420 0.0000 12.0000 16.0000
192 191 4 -2.8700 39.9871 11.9623 16.0302
193 193 2 4.6160 2.0000 14.0000 18.0000
194 193 5 -1.5440 2.0448 13.9913 18.0203
195 195 3 0.9700 2.0000 14.0000 16.0000
196 195 6 -2.7180 2.0072 14.0243 16.0431
197 197 3 0.9700 2.0000 12.0000 18.0000
198 197 6 -2.7180 1.9508 11.9914 17.9977
199 199 3 0.9700 0.0000 14.0000 18.0000
200 199 6 -2.7180 39.9586 13.9906 18.0264
201 201 1 5.0420 0.0000 16.0000 0.0000
202 201 4 -2.8700 39.9846 15.9572 19.9792
203 203 2 4.6160 2.0000 18.0000 2.0000
204 203 5 -1.5440 2.0115 17.9695 2.0379
205 205 3 0.9700 2.0000 18.0000 0.0000
206 205 6 -2.7180 1.9671 18.0136 19.9649
207 207 3 0.9700 2.0000 16.0000 2.0000
208 207 6 -2.7180 2.0131 15.9659 2.0341
209 209 3 0.9700 0.0000 18.0000 2.0000
210 209 6 -2.7180 39.9925 17.9952 1.9508
211 211 1 5.0420 0.0000 16.0000 4.0000
212 211 4 -2.8700 39.9999 15.9971 3.9501
213 213 2 4.6160 2.0000 18.0000 6.0000
214 213 5 -1.5440 2.0124 18.0417 6.0247
215 215 3 0.9700 2.0000 18.0000 4.0000
216 215 6 -2.7180 1.9948 18.0464 4.0178
217 217 3 0.9700 2.0000 16.0000 6.0000
218 217 6 -2.7180 2.0092 15.9550 5.9802
219 219 3 0.9700 0.0000 18.0000 6.0000
220 219 6 -2.7180 39.9819 18.0404 6.0232
221 221 1 5.0420 0.0000 16.0000 8.0000
222 221 4 -2.8700 39.9980 15.9583 7.9725
223 223 2 4.6160 2.0000 18.0000 10.0000
224 223 5 -1.5440 2.0497 18.0051 10.0006
225 225 3 0.9700 2.0000 18.0000 8.0000
226 225 6 -2.7180 1.9944 18.0484 7.9886
227 227 3 0.9700 2.0000 16.0000 10.0000
228 227 6 -2.7180 1.9951 16.0187 10.0461
229 229 3 0.9700 0.0000 18.0000 10.0000
230 229 6 -2.7180 39.9953 18.0347 10.0357
231 231 1 5.0420 0.0000 16.0000 12.0000
232 231 4 -2.8700 0.0084 15.9580 12.0257
233 233 2 4.6160 2.0000 18.0000 14.0000
234 233 5 -1.5440 2.0029 18.0439 13.9763
235 235 3 0.9700 2.0000 18.0000 12.0000
236 235 6 -2.7180 1.9999 17.9868 11.9518
237 237 3 0.9700 2.0000 16.0000 14.0000
238 237 6 -2.7180 1.9812 15.9649 14.0303
239 239 3 0.9700 0.0000 18.0000 14.0000
240 239 6 -2.7180 0.0178 18.0442 14.0152
241 241 1 5.0420 0.0000 16.0000 16.0000
242 241 4 -2.8700 0.0291 16.0393 15.9895
243 243 2 4.6160 2.0000 18.0000 18.0000
244 243 5 -1.5440 1.9820 18.0206 18.0419
245 245 3 0.9700 2.0000 18.0000 16.0000
246 245 6 -2.7180 1.9872 17.9557 16.0194
247 247 3 0.9700 2.0000 16.0000 18.0000
248 247 6 -2.7180 1.9663 15.9721 18.0242
249 249 3 0.9700 0.0000 18.0000 18.0000
250 249 6 -2.7180 39.9856 18.0347 17.9670
251 251 1 5.0420 4.0000 0.0000 0.0000
252 251 4 -2.8700 4.0343 0.0201 0.0303
253 253 2 4.6160 6.0000 2.0000 2.0000
254 253 5 -1.5440 6.0276 2.0205 1.9638
255 255 3 0.9700 6.0000 2.0000 0.0000
256 255 6 -2.7180 6.0323 1.9780 19.9688
257 257 3 0.9700 6.0000 0.0000 2.0000
258 257 6 -2.7180 6.0212 19.9827 1.9581
259 259 3 0.9700 4.0000 2.0000 2.0000
260 259 6 -2.7180 3.9989 2.0449 2.0219
261 261 1 5.0420 4.0000 0.0000 4.0000
262 261 4 -2.8700 4.0230 19.9646 3.9733
263 263 2 4.6160 6.0000 2.0000 6.0000
264 263 5 -1.5440 6.0235 2.0338 6.0284
265 265 3 0.9700 6.0000 2.0000 4.0000
266 265 6 -2.7180 6.0236 1.9567 3.9921
267 267 3 0.9700 6.0000 0.0000 6.0000
268 267 6 -2.7180 6.0321 0.0368 6.0105
269 269 3 0.9700 4.0000 2.0000 6.0000
270 269 6 -2.7180 4.0096 2.0294 5.9607
271 271 1 5.0420 4.0000 0.0000 8.0000
272 271 4 -2.8700 4.0425 0.0116 8.0237
273 273 2 4.6160 6.0000 2.0000 10.0000
274 273 5 -1.5440 5.9902 2.0234 9.9569
275 275 3 0.9700 6.0000 2.0000 8.0000
276 275 6 -2.7180 6.0452 1.9925 8.0200
277 277 3 0.9700 6.0000 0.0000 10.0000
278 277 6 -2.7180 5.9562 0.0227 9.9920
279 279 3 0.9700 4.0000 2.0000 10.0000
280 279 6 -2.7180 4.0308 1.9798 10.0338
281 281 1 5.0420 4.0000 0.0000 12.0000
282 281 4 -2.8700 3.9776 19.9820 11.9591
283 283 2 4.6160 6.0000 2.0000 14.0000
284 283 5 -1.5440 5.9610 2.0114 14.0292
285 285 3 0.9700 6.0000 2.0000 12.0000
286 285 6 -2.7180 6.0064 1.9754 11.9569
287 287 3 0.9700 6.0000 0.0000 14.0000
288 287 6 -2.7180 5.9762 0.0439 14.0027
289 289 3 0.9700 4.0000 2.0000 14.0000
290 289 6 -2.7180 3.9687 1.9675 13.9785
291 291 1 5.0420 4.0000 0.0000 16.0000
292 291 4 -2.8700 3.9949 0.0497 16.0012
293 293 2 4.6160 6.0000 2.0000 18.0000
294 293 5 -1.5440 5.9643 1.9793 17.9718
295 295 3 0.9700 6.0000 2.0000 16.0000
296 295 6 -2.7180 6.0234 2.0350 16.0269
297 297 3 0.9700 6.0000 0.0000 18.0000
298 297 6 -2.7180 5.9868 0.0482 17.9986
299 299 3 0.9700 4.0000 2.0000 18.0000
300 299 6 -2.7180 3.9946 1.9515 17.9893
301 301 1 5.0420 4.0000 4.0000 0.0000
302 301 4 -2.8700 3.9622 3.9891 19.9692
303 303 2 4.6160 6.0000 6.0000 2.0000
304 303 5 -1.5440 5.9904 5.9536 2.0159
305 305 3 0.9700 6.0000 6.0000 0.0000
306 305 6 -2.7180 5.9563 6.0119 19.9789
307 307 3 0.9700 6.0000 4.0000 2.0000
308 307 6 -2.7180 5.9796 3.9549 1.9928
309 309 3 0.9700 4.0000 6.0000 2.0000
310 309 6 -2.7180 4.0231 6.0422 2.0137
311 311 1 5.0420 4.0000 4.0000 4.0000
312 311 4 -2.8700 3.9627 3.9938 4.0327
313 313 2 4.6160 6.0000 6.0000 6.0000
314 313 5 -1.5440 6.0307 5.9631 6.0142
315 315 3 0.9700 6.0000 6.0000 4.0000
316 315 6 -2.7180 6.0369 5.9847 3.9699
317 317 3 0.9700 6.0000 4.0000 6.0000
318 317 6 -2.7180 5.9629 4.0242 6.0232
319 319 3 0.9700 4.0000 6.0000 6.0000
320 319 6 -2.7180 3.9848 5.9525 6.0036
321 321 1 5.0420 4.0000 4.0000 8.0000
322 321 4 -2.8700 3.9909 4.0029 8.0491
323 323 2 4.6160 6.0000 6.0000 10.0000
324 323 5 -1.5440 6.0066 5.9821 10.0462
325 325 3 0.9700 6.0000 6.0000 8.0000
326 325 6 -2.7180 5.9664 5.9754 8.0277
327 327 3 0.9700 6.0000 4.0000 10.0000
328 327 6 -2.7180 5.9503 4.0051 9.9986
329 329 3 0.9700 4.0000 6.0000 10.0000
330 329 6 -2.7180 4.0422 6.0256 10.0081
331 331 1 5.0420 4.0000 4.0000 12.0000
332 331 4 -2.8700 3.9568 4.0207 11.9858
333 333 2 4.6160 6.0000 6.0000 14.0000
334 333 5 -1.5440 5.9912 5.9690 13.9618
335 335 3 0.9700 6.0000 6.0000 12.0000
336 335 6 -2.7180 6.0254 6.0330 11.9723
337 337 3 0.9700 6.0000 4.0000 14.0000
338 337 6 -2.7180 6.0204 4.0102 13.9555
339 339 3 0.9700 4.0000 6.0000 14.0000
340 339 6 -2.7180 3.9651 6.0334 14.0130
341 341 1 5.0420 4.0000 4.0000 16.0000
342 341 4 -2.8700 3.9858 3.9534 16.0115
343 343 2 4.6160 6.0000 6.0000 18.0000
344 343 5 -1.5440 6.0059 5.9558 18.0225
345 345 3 0.9700 6.0000 6.0000 16.0000
346 345 6 -2.7180 6.0022 6.0123 15.9516
347 347 3 0.9700 6.0000 4.0000 18.0000
348 347 6 -2.7180 6.0407 4.0207 17.9796
349 349 3 0.9700 4.0000 6.0000 18.0000
350 349 6 -2.7180 3.9868 5.9600 18.0270
351 351 1 5.0420 4.0000 8.0000 0.0000
352 351 4 -2.8700 4.0401 8.0183 0.0235
353 353 2 4.6160 6.0000 10.0000 2.0000
354 353 5 -1.5440 6.0191 9.9614 2.0254
355 355 3 0.9700 6.0000 10.0000 0.0000
356 355 6 -2.7180 5.9715 10.0201 19.9642
357 357 3 0.9700 6.0000 8.0000 2.0000
358 357 6 -2.7180 6.0387 8.0148 2.0279
359 359 3 0.9700 4.0000 10.0000 2.0000
360 359 6 -2.7180 3.9736 10.0307 1.9706
361 361 1 5.0420 4.0000 8.0000 4.0000
362 361 4 -2.8700 3.9729 7.9803 4.0371
363 363 2 4.6160 6.0000 10.0000 6.0000
364 363 5 -1.5440 6.0486 9.9911 5.9922
365 365 3 0.9700 6.0000 10.0000 4.0000
366 365 6 -2.7180 6.0094 9.9794 4.0446
367 367 3 0.9700 6.0000 8.0000 6.0000
368 367 6 -2.7180 6.0354 8.0317 5.9844
369 369 3 0.9700 4.0000 10.0000 6.0000
370 369 6 -2.7180 3.9573 9.9767 6.0115
371 371 1 5.0420 4.0000 8.0000 8.0000
372 371 4 -2.8700 3.9674 8.0159 7.9655
373 373 2 4.6160 6.0000 10.0000 10.0000
374 373 5 -1.5440 6.0210 9.9806 10.0410
375 375 3 0.9700 6.0000 10.0000 8.0000
376 375 6 -2.7180 5.9609 10.0309 7.9953
377 377 3 0.9700 6.0000 8.0000 10.0000
378 377 6 -2.7180 6.0101 8.0490 10.0003
379 379 3 0.9700 4.0000 10.0000 10.0000
380 379 6 -2.7180 4.0364 9.9896 10.0326
381 381 1 5.0420 4.0000 8.0000 12.0000
382 381 4 -2.8700 4.0427 8.0008 11.9739
383 383 2 4.6160 6.0000 10.0000 14.0000
384 383 5 -1.5440 6.0195 9.9671 13.9678
385 385 3 0.9700 6.0000 10.0000 12.0000
386 385 6 -2.7180 6.0374 10.0251 12.0217
387 387 3 0.9700 6.0000 8.0000 14.0000
388 387 6 -2.7180 5.9871 8.0004 13.9517
389 389 3 0.9700 4.0000 10.0000 14.0000
390 389 6 -2.7180 3.9625 10.0119 13.9692
391 391 1 5.0420 4.0000 8.0000 16.0000
392 391 4 -2.8700 4.0042 7.9521 15.9863
393 393 2 4.6160 6.0000 10.0000 18.0000
394 393 5 -1.5440 5.9570 10.0255 18.0004
395 395 3 0.9700 6.0000 10.0000 16.0000
396 395 6 -2.7180 6.0081 9.9658 15.9645
397 397 3 0.9700 6.0000 8.0000 18.0000
398 397 6 -2.7180 5.9642 8.0304 18.0171
399 399 3 0.9700 4.0000 10.0000 18.0000
400 399 6 -2.7180 4.0070 9.9707 17.9601
401 401 1 5.0420 4.0000 12.0000 0.0000
402 401 4 -2.8700 4.0318 12.0159 19.9648
403 403 2 4.6160 6.0000 14.0000 2.0000
404 403 5 -1.5440 6.0338 13.9638 2.0067
405 405 3 0.9700 6.0000 14.0000 0.0000
406 405 6 -2.7180 6.0284 14.0065 19.9594
407 407 3 0.9700 6.0000 12.0000 2.0000
408 407 6 -2.7180 6.0327 11.9726 2.0261
409 409 3 0.9700 4.0000 14.0000 2.0000
410 409 6 -2.7180 3.9799 14.0328 1.9680
411 411 1 5.0420 4.0000 12.0000 4.0000
412 411 4 -2.8700 3.9651 12.0244 4.0262
413 413 2 4.6160 6.0000 14.0000 6.0000
414 413 5 -1.5440 6.0225 13.9570 6.0119
415 415 3 0.9700 6.0000 14.0000 4.0000
416 415 6 -2.7180 5.9680 14.0264 4.0279
417 417 3 0.9700 6.0000 12.0000 6.0000
418 417 6 -2.7180 6.0201 12.0360 5.9717
419 419 3 0.9700 4.0000 14.0000 6.0000
420 419 6 -2.7180 4.0119 14.0486 6.0010
421 421 1 5.0420 4.0000 12.0000 8.0000
422 421 4 -2.8700 4.0010 11.9733 8.0423
423 423 2 4.6160 6.0000 14.0000 10.0000
424 423 5 -1.5440 6.0082 14.0375 9.9680
425 425 3 0.9700 6.0000 14.0000 8.0000
426 425 6 -2.7180 5.9514 14.0025 8.0113
427 427 3 0.9700 6.0000 12.0000 10.0000
428 427 6 -2.7180 5.9551 12.0175 9.9868
429 429 3 0.9700 4.0000 14.0000 10.0000
430 429 6 -2.7180 4.0489 14.0021 10.0101
431 431 1 5.0420 4.0000 12.0000 12.0000
432 431 4 -2.8700 3.9851 11.9721 11.9613
433 433 2 4.6160 6.0000 14.0000 14.0000
434 433 5 -1.5440 6.0391 14.0116 14.0289
435 435 3 0.9700 6.0000 14.0000 12.0000
436 435 6 -2.7180 5.9962 13.9597 11.9706
437 437 3 0.9700 6.0000 12.0000 14.0000
438 437 6 -2.7180 5.9786 11.9565 14.0124
439 439 3 0.9700 4.0000 14.0000 14.0000
440 439 6 -2.7180 3.9528 14.0147 14.0072
441 441 1 5.0420 4.0000 12.0000 16.0000
442 441 4 -2.8700 3.9772 12.0432 16.0106
443 443 2 4.6160 6.0000 14.0000 18.0000
444 443 5 -1.5440 5.9510 13.9972 18.0095
445 445 3 0.9700 6.0000 14.0000 16.0000
446 445 6 -2.7180 5.9822 14.0119 16.0452
447 447 3 0.9700 6.0000 12.0000 18.0000
448 447 6 -2.7180 6.0098 12.0244 18.0425
449 449 3 0.9700 4.0000 14.0000 18.0000
450 449 6 -2.7180 4.0353 14.0075 18.0346
451 451 1 5.0420 4.0000 16.0000 0.0000
452 451 4 -2.8700 3.9538 16.0012 0.0190
453 453 2 4.6160 6.0000 18.0000 2.0000
454 453 5 -1.5440 6.0079 17.9937 1.9510
455 455 3 0.9700 6.0000 18.0000 0.0000
456 455 6 -2.7180 6.0013 17.9552 19.9778
457 457 3 0.9700 6.0000 16.0000 2.0000
458 457 6 -2.7180 6.0285 15.9708 2.0289
459 459 3 0.9700 4.0000 18.0000 2.0000
460 459 6 -2.7180 3.9836 18.0416 2.0224
461 461 1 5.0420 4.0000 16.0000 4.0000
462 461 4 -2.8700 3.9789 16.0141 4.0431
463 463 2 4.6160 6.0000 18.0000 6.0000
464 463 5 -1.5440 5.9556 17.9918 5.9785
465 465 3 0.9700 6.0000 18.0000 4.0000
466 465 6 -2.7180 6.0176 18.0457 4.0102
467 467 3 0.9700 6.0000 16.0000 6.0000
468 467 6 -2.7180 6.0003 16.0149 5.9523
469 469 3 0.9700 4.0000 18.0000 6.0000
470 469 6 -2.7180 3.9635 18.0280 5.9805
471 471 1 5.0420 4.0000 16.0000 8.0000
472 471 4 -2.8700 4.0367 16.0247 7.9767
473 473 2 4.6160 6.0000 18.0000 10.0000
474 473 5 -1.5440 6.0221 18.0433 10.0116
475 475 3 0.9700 6.0000 18.0000 8.0000
476 475 6 -2.7180 5.9912 18.0156 8.0467
477 477 3 0.9700 6.0000 16.0000 10.0000
478 477 6 -2.7180 6.0021 16.0153 10.0475
479 479 3 0.9700 4.0000 18.0000 10.0000
480 479 6 -2.7180 3.9766 17.9565 10.0080
481 481 1 5.0420 4.0000 16.0000 12.0000
482 481 4 -2.8700 3.9566 15.9830 11.9819
483 483 2 4.6160 6.0000 18.0000 14.0000
484 483 5 -1.5440 6.0350 17.9824 13.9690
485 485 3 0.9700 6.0000 18.0000 12.0000
486 485 6 -2.7180 5.9822 17.9807 12.0426
487 487 3 0.9700 6.0000 16.0000 14.0000
488 487 6 -2.7180 5.9858 15.9614 14.0285
489 489 3 0.9700 4.0000 18.0000 14.0000
490 489 6 -2.7180 4.0190 18.0364 13.9715
491 491 1 5.0420 4.0000 16.0000 16.0000
492 491 4 -2.8700 3.9510 16.0098 15.9980
493 493 2 4.6160 6.0000 18.0000 18.0000
494 493 5 -1.5440 5.9956 17.9602 18.0299
495 495 3 0.9700 6.0000 18.0000 16.0000
496 495 6 -2.7180 6.0114 17.9779 15.9566
497 497 3 0.9700 6.0000 16.0000 18.0000
498 497 6 -2.7180 5.9570 16.0217 18.0135
499 499 3 0.9700 4.0000 18.0000 18.0000
500 499 6 -2.7180 3.9989 18.0442 18.0233
501 501 1 5.0420 8.0000 0.0000 0.0000
502 501 4 -2.8700 7.9866 19.9601 19.9730
503 503 2 4.6160 10.0000 2.0000 2.0000
504 503 5 -1.5440 9.9546 2.0207 2.0033
505 505 3 0.9700 10.0000 2.0000 0.0000
506 505 6 -2.7180 10.0383 1.9689 0.0078
507 507 3 0.9700 10.0000 0.0000 2.0000
508 507 6 -2.7180 10.0076 19.9847 1.9530
509 509 3 0.9700 8.0000 2.0000 2.0000
510 509 6 -2.7180 8.0212 2.0415 2.0181
511 511 1 5.0420 8.0000 0.0000 4.0000
512 511 4 -2.8700 8.0222 19.9600 4.0202
513 513 2 4.6160 10.0000 2.0000 6.0000
514 513 5 -1.5440 10.0430 2.0251 6.0043
515 515 3 0.9700 10.0000 2.0000 4.0000
516 515 6 -2.7180 9.9880 2.0242 3.9579
517 517 3 0.9700 10.0000 0.0000 6.0000
518 517 6 -2.7180 9.9685 19.9617 5.9933
519 519 3 0.9700 8.0000 2.0000 6.0000
520 519 6 -2.7180 7.9715 2.0407 5.9943
521 521 1 5.0420 8.0000 0.0000 8.0000
522 521 4 -2.8700 8.0169 19.9547 7.9873
523 523 2 4.6160 10.0000 2.0000 10.0000
524 523 5 -1.5440 9.9644 2.0299 10.0184
525 525 3 0.9700 10.0000 2.0000 8.0000
526 525 6 -2.7180 10.0380 2.0261 8.0194
527 527 3 0.9700 10.0000 0.0000 10.0000
528 527 6 -2.7180 9.9927 19.9517 10.0105
529 529 3 0.9700 8.0000 2.0000 10.0000
530 529 6 -2.7180 7.9981 1.9917 10.0493
531 531 1 5.0420 8.0000 0.0000 12.0000
532 531 4 -2.8700 7.9590 19.9932 11.9722
533 533 2 4.6160 10.0000 2.0000 14.0000
534 533 5 -1.5440 9.9619 2.0122 14.0300
535 535 3 0.9700 10.0000 2.0000 12.0000
536 535 6 -2.7180 9.9920 1.9777 12.0440
537 537 3 0.9700 10.0000 0.0000 14.0000
538 537 6 -2.7180 10.0153 0.0306 14.0365
539 539 3 0.9700 8.0000 2.0000 14.0000
540 539 6 -2.7180 8.0224 2.0429 14.0125
541 541 1 5.0420 8.0000 0.0000 16.0000
542 541 4 -2.8700 8.0355 0.0185 16.0299
543 543 2 4.6160 10.0000 2.0000 18.0000
544 543 5 -1.5440 9.9959 2.0017 18.0498
545 545 3 0.9700 10.0000 2.0000 16.0000
546 545 6 -2.7180 9.9574 2.0226 16.0131
547 547 3 0.9700 10.0000 0.0000 18.0000
548 547 6 -2.7180 10.0151 0.0397 17.9736
549 549 3 0.9700 8.0000 2.0000 18.0000
550 549 6 -2.7180 7.9702 2.0186 18.0356
551 551 1 5.0420 8.0000 4.0000 0.0000
552 551 4 -2.8700 8.0174 3.9910 19.9540
553 553 2 4.6160 10.0000 6.0000 2.0000
554 553 5 -1.5440 10.0264 6.0168 2.0390
555 555 3 0.9700 10.0000 6.0000 0.0000
556 555 6 -2.7180 10.0327 5.9765 0.0296
557 557 3 0.9700 10.0000 4.0000 2.0000
558 557 6 -2.7180 10.0077 3.9524 1.9868
559 559 3 0.9700 8.0000 6.0000 2.0000
560 559 6 -2.7180 7.9632 5.9701 1.9842
561 561 1 5.0420 8.0000 4.0000 4.0000
562 561 4 -2.8700 7.9542 4.0120 4.0162
563 563 2 4.6160 10.0000 6.0000 6.0000
564 563 5 -1.5440 9.9892 5.9894 6.0477
565 565 3 0.9700 10.0000 6.0000 4.0000
566 565 6 -2.7180 10.0375 5.9712 4.0162
567 567 3 0.9700 10.0000 4.0000 6.0000
568 567 6 -2.7180 9.9753 3.9804 5.9612
569 569 3 0.9700 8.0000 6.0000 6.0000
570 569 6 -2.7180 7.9726 6.0220 5.9644
571 571 1 5.0420 8.0000 4.0000 8.0000
572 571 4 -2.8700 7.9963 4.0067 7.9506
573 573 2 4.6160 10.0000 6.0000 10.0000
574 573 5 -1.5440 10.0477 6.0110 9.9898
575 575 3 0.9700 10.0000 6.0000 8.0000
576 575 6 -2.7180 9.9706 5.9831 8.0367
577 577 3 0.9700 10.0000 4.0000 10.0000
578 577 6 -2.7180 9.9609 4.0096 9.9703
579 579 3 0.9700 8.0000 6.0000 10.0000
580 579 6 -2.7180 7.9965 6.0365 10.0340
581 581 1 5.0420 8.0000 4.0000 12.0000
582 581 4 -2.8700 7.9719 4.0097 11.9598
583 583 2 4.6160 10.0000 6.0000 14.0000
584 583 5 -1.5440 9.9984 6.0282 13.9587
585 585 3 0.9700 10.0000 6.0000 12.0000
586 585 6 -2.7180 10.0378 6.0157 11.9712
587 587 3 0.9700 10.0000 4.0000 14.0000
588 587 6 -2.7180 10.0424 4.0155 14.0215
589 589 3 0.9700 8.0000 6.0000 14.0000
590 589 6 -2.7180 8.0126 5.9982 14.0483
591 591 1 5.0420 8.0000 4.0000 16.0000
592 591 4 -2.8700 7.9723 3.9587 15.9952
593 593 2 4.6160 10.0000 6.0000 18.0000
594 593 5 -1.5440 9.9978 5.9513 18.0110
595 595 3 0.9700 10.0000 6.0000 16.0000
596 595 6 -2.7180 10.0197 6.0272 16.0370
597 597 3 0.9700 10.0000 4.0000 18.0000
598 597 6 -2.7180 9.9839 3.9547 17.9863
599 599 3 0.9700 8.0000 6.0000 18.0000
600 599 6 -2.7180 7.9812 5.9961 18.0462
601 601 1 5.0420 8.0000 8.0000 0.0000
602 601 4 -2.8700 7.9969 7.9999 19.9501
603 603 2 4.6160 10.0000 10.0000 2.0000
604 603 5 -1.5440 9.9792 10.0443 1.9898
605 605 3 0.9700 10.0000 10.0000 0.0000
606 605 6 -2.7180 9.9563 9.9952 19.9762
607 607 3 0.9700 10.0000 8.0000 2.0000
608 607 6 -2.7180 9.9777 8.0138 2.0425
609 609 3 0.9700 8.0000 10.0000 2.0000
610 609 6 -2.7180 8.0218 9.9687 2.0323
611 611 1 5.0420 8.0000 8.0000 4.0000
612 611 4 -2.8700 7.9675 8.0337 3.9825
613 613 2 4.6160 10.0000 10.0000 6.0000
614 613 5 -1.5440 9.9954 10.0485 6.0113
615 615 3 0.9700 10.0000 10.0000 4.0000
616 615 6 -2.7180 10.0303 10.0044 4.0395
617 617 3 0.9700 10.0000 8.0000 6.0000
618 617 6 -2.7180 10.0056 7.9922 5.9509
619 619 3 0.9700 8.0000 10.0000 6.0000
620 619 6 -2.7180 8.0461 10.0173 5.9914
621 621 1 5.0420 8.0000 8.0000 8.0000
622 621 4 -2.8700 8.0325 8.0329 7.9811
623 623 2 4.6160 10.0000 10.0000 10.0000
624 623 5 -1.5440 9.9910 9.9601 10.0288
625 625 3 0.9700 10.0000 10.0000 8.0000
626 625 6 -2.7180 9.9784 10.0276 7.9644
627 627 3 0.9700 10.0000 8.0000 10.0000
628 627 6 -2.7180 10.0450 8.0118 10.0184
629 629 3 0.9700 8.0000 10.0000 10.0000
630 629 6 -2.7180 8.0252 9.9970 9.9569
631 631 1 5.0420 8.0000 8.0000 12.0000
632 631 4 -2.8700 8.0400 8.0201 12.0223
633 633 2 4.6160 10.0000 10.0000 14.0000
634 633 5 -1.5440 10.0171 10.0264 14.0389
635 635 3 0.9700 10.0000 10.0000 12.0000
636 635 6 -2.7180 10.0037 9.9765 12.0440
637 637 3 0.9700 10.0000 8.0000 14.0000
638 637 6 -2.7180 9.9837 7.9664 14.0332
639 639 3 0.9700 8.0000 10.0000 14.0000
640 639 6 -2.7180 8.0316 9.9842 14.0354
641 641 1 5.0420 8.0000 8.0000 16.0000
642 641 4 -2.8700 8.0082 8.0493 16.0003
643 643 2 4.6160 10.0000 10.0000 18.0000
644 643 5 -1.5440 9.9995 10.0017 18.0500
645 645 3 0.9700 10.0000 10.0000 16.0000
646 645 6 -2.7180 9.9615 9.9813 16.0259
647 647 3 0.9700 10.0000 8.0000 18.0000
648 647 6 -2.7180 10.0189 7.9583 17.9798
649 649 3 0.9700 8.0000 10.0000 18.0000
650 649 6 -2.7180 7.9552 9.9781 17.9957
651 651 1 5.0420 8.0000 12.0000 0.0000
652 651 4 -2.8700 7.9876 11.9518 19.9948
653 653 2 4.6160 10.0000 14.0000 2.0000
654 653 5 -1.5440 9.9623 13.9671 2.0008
655 655 3 0.9700 10.0000 14.0000 0.0000
656 655 6 -2.7180 9.9616 13.9824 0.0267
657 657 3 0.9700 10.0000 12.0000 2.0000
658 657 6 -2.7180 10.0070 11.9766 2.0436
659 659 3 0.9700 8.0000 14.0000 2.0000
660 659 6 -2.7180 8.0373 13.9758 1.9772
661 661 1 5.0420 8.0000 12.0000 4.0000
662 661 4 -2.8700 7.9959 11.9518 3.9873
663 663 2 4.6160 10.0000 14.0000 6.0000
664 663 5 -1.5440 9.9592 13.9833 5.9765
665 665 3 0.9700 10.0000 14.0000 4.0000
666 665 6 -2.7180 10.0229 13.9670 4.0297
667 667 3 0.9700 10.0000 12.0000 6.0000
668 667 6 -2.7180 10.0234 12.0274 5.9653
669 669 3 0.9700 8.0000 14.0000 6.0000
670 669 6 -2.7180 8.0332 13.9934 6.0368
671 671 1 5.0420 8.0000 12.0000 8.0000
672 671 4 -2.8700 8.0249 11.9896 8.0421
673 673 2 4.6160 10.0000 14.0000 10.0000
674 673 5 -1.5440 10.0457 14.0114 9.9831
675 675 3 0.9700 10.0000 14.0000 8.0000
676 675 6 -2.7180 10.0086 14.0444 7.9787
677 677 3 0.9700 10.0000 12.0000 10.0000
678 677 6 -2.7180 9.9573 12.0161 10.0204
679 679 3 0.9700 8.0000 14.0000 10.0000
680 679 6 -2.7180 8.0281 14.0201 9.9639
681 681 1 5.0420 8.0000 12.0000 12.0000
682 681 4 -2.8700 8.0466 12.0159 12.0086
683 683 2 4.6160 10.0000 14.0000 14.0000
684 683 5 -1.5440 10.0226 14.0243 14.0374
685 685 3 0.9700 10.0000 14.0000 12.0000
686 685 6 -2.7180 10.0271 13.9795 11.9633
687 687 3 0.9700 10.0000 12.0000 14.0000
688 687 6 -2.7180 9.9612 11.9744 13.9815
689 689 3 0.9700 8.0000 14.0000 14.0000
690 689 6 -2.7180 8.0403 14.0242 14.0171
691 691 1 5.0420 8.0000 12.0000 16.0000
692 691 4 -2.8700 8.0408 12.0262 15.9878
693 693 2 4.6160 10.0000 14.0000 18.0000
694 693 5 -1.5440 9.9725 14.0153 18.0389
695 695 3 0.9700 10.0000 14.0000 16.0000
696 695 6 -2.7180 9.9680 13.9804 15.9670
697 697 3 0.9700 10.0000 12.0000 18.0000
698 697 6 -2.7180 9.9805 11.9746 18.0384
699 699 3 0.9700 8.0000 14.0000 18.0000
700 699 6 -2.7180 7.9744 13.9650 18.0249
701 701 1 5.0420 8.0000 16.0000 0.0000
702 701 4 -2.8700 8.0309 15.9660 19.9803
703 703 2 4.6160 10.0000 18.0000 2.0000
704 703 5 -1.5440 9.9578 17.9741 1.9927
705 705 3 0.9700 10.0000 18.0000 0.0000
706 705 6 -2.7180 9.9667 17.9856 0.0344
707 707 3 0.9700 10.0000 16.0000 2.0000
708 707 6 -2.7180 10.0046 16.0008 2.0498
709 709 3 0.9700 8.0000 18.0000 2.0000
710 709 6 -2.7180 7.9537 18.0176 2.0067
711 711 1 5.0420 8.0000 16.0000 4.0000
712 711 4 -2.8700 7.9532 16.0076 3.9841
713 713 2 4.6160 10.0000 18.0000 6.0000
714 713 5 -1.5440 10.0067 17.9782 6.0445
715 715 3 0.9700 10.0000 18.0000 4.0000
716 715 6 -2.7180 9.9691 17.9663 3.9799
717 717 3 0.9700 10.0000 16.0000 6.0000
718 717 6 -2.7180 9.9710 16.0366 5.9821
719 719 3 0.9700 8.0000 18.0000 6.0000
720 719 6 -2.7180 7.9581 18.0261 5.9922
721 721 1 5.0420 8.0000 16.0000 8.0000
722 721 4 -2.8700 8.0008 15.9605 8.0306
723 723 2 4.6160 10.0000 18.0000 10.0000
724 723 5 -1.5440 9.9855 17.9613 9.9719
725 725 3 0.9700 10.0000 18.0000 8.0000
726 725 6 -2.7180 10.0492 17.9980 7.9912
727 727 3 0.9700 10.0000 16.0000 10.0000
728 727 6 -2.7180 9.9621 16.0258 9.9801
729 729 3 0.9700 8.0000 18.0000 10.0000
730 729 6 -2.7180 8.0435 18.0213 9.9878
731 731 1 5.0420 8.0000 16.0000 12.0000
732 731 4 -2.8700 7.9685 16.0295 12.0252
733 733 2 4.6160 10.0000 18.0000 14.0000
734 733 5 -1.5440 9.9930 17.9726 14.0412
735 735 3 0.9700 10.0000 18.0000 12.0000
736 735 6 -2.7180 10.0387 18.0315 11.9967
737 737 3 0.9700 10.0000 16.0000 14.0000
738 737 6 -2.7180 10.0368 16.0331 14.0070
739 739 3 0.9700 8.0000 18.0000 14.0000
740 739 6 -2.7180 8.0018 17.9634 13.9659
741 741 1 5.0420 8.0000 16.0000 16.0000
742 741 4 -2.8700 7.9714 16.0375 16.0167
743 743 2 4.6160 10.0000 18.0000 18.0000
744 743 5 -1.5440 10.0074 17.9600 18.0290
745 745 3 0.9700 10.0000 18.0000 16.0000
746 745 6 -2.7180 9.9936 18.0146 16.0474
747 747 3 0.9700 10.0000 16.0000 18.0000
748 747 6 -2.7180 10.0165 16.0329 17.9662
749 749 3 0.9700 8.0000 18.0000 18.0000
750 749 6 -2.7180 7.9525 17.9851 18.0050
751 751 1 5.0420 12.0000 0.0000 0.0000
752 751 4 -2.8700 11.9550 19.9819 19.9878
753 753 2 4.6160 14.0000 2.0000 2.0000
754 753 5 -1.5440 14.0390 1.9724 1.9851
755 755 3 0.9700 14.0000 2.0000 0.0000
756 755 6 -2.7180 14.0079 2.0226 19.9561