LAMMPS Description

2500 atoms
1250 bonds
6 atom types
3 bond types

0 40.00 xlo xhi
0 20.00 ylo yhi
0 20.00 zlo zhi

Masses

1 135.3270
2 45.8670
3 13.9990
4 2.0000
5 2.0000
6 2.0000

Atoms

1 1 5.0420 0.0000 0.0000 0.0000
2 4 -2.8700 -0.1948 0.0963 -0.2069
3 2 4.6160 2.0000 2.0000 2.0000
4 5 -1.5440 1.7705 2.1932 2.0003
5 3 0.9700 2.0000 2.0000 0.0000
6 6 -2.7180 2.1142 1.7290 -0.0592
7 3 0.9700 2.0000 0.0000 2.0000
8 6 -2.7180 2.0505 0.0276 2.2944
9 3 0.9700 0.0000 2.0000 2.0000
10 6 -2.7180 -0.1781 1.9572 2.2376
11 1 5.0420 0.0000 0.0000 4.0000
12 4 -2.8700 0.1279 -0.2662 3.9471
13 2 4.6160 2.0000 2.0000 6.0000
14 5 -1.5440 1.7613 1.9943 6.1817
15 3 0.9700 2.0000 2.0000 4.0000
16 6 -2.7180 2.1024 2.2625 4.1030
17 3 0.9700 2.0000 0.0000 6.0000
18 6 -2.7180 2.0872 0.2614 6.1185
19 3 0.9700 0.0000 2.0000 6.0000
20 6 -2.7180 -0.1872 2.0155 5.7661
21 1 5.0420 0.0000 0.0000 8.0000
22 4 -2.8700 0.1363 -0.2586 7.9325
23 2 4.6160 2.0000 2.0000 10.0000
24 5 -1.5440 2.0150 1.9939 10.2996
25 3 0.9700 2.0000 2.0000 8.0000
26 6 -2.7180 2.0195 1.7836 8.2069
27 3 0.9700 2.0000 0.0000 10.0000
28 6 -2.7180 1.7314 0.1214 10.0559
29 3 0.9700 0.0000 2.0000 10.0000
30 6 -2.7180 -0.0842 1.8667 9.7448
31 1 5.0420 0.0000 0.0000 12.0000
32 4 -2.8700 -0.2714 -0.0613 12.1123
33 2 4.6160 2.0000 2.0000 14.0000
34 5 -1.5440 1.8903 2.2436 13.8635
35 3 0.9700 2.0000 2.0000 12.0000
36 6 -2.7180 2.2852 1.9078 12.0132
37 3 0.9700 2.0000 0.0000 14.0000
38 6 -2.7180 2.2112 0.1815 13.8885
39 3 0.9700 0.0000 2.0000 14.0000
40 6 -2.7180 0.1022 1.8458 13.7639
41 1 5.0420 0.0000 0.0000 16.0000
42 4 -2.8700 0.0701 -0.1835 15.7732
43 2 4.6160 2.0000 2.0000 18.0000
44 5 -1.5440 1.9902 2.2252 18.1979
45 3 0.9700 2.0000 2.0000 16.0000
46 6 -2.7180 1.7358 2.0066 16.1419
47 3 0.9700 2.0000 0.0000 18.0000
48 6 -2.7180 2.1203 0.1928 18.1959
49 3 0.9700 0.0000 2.0000 18.0000
50 6 -2.7180 0.1545 1.7430 18.0072
51 1 5.0420 0.0000 4.0000 0.0000
52 4 -2.8700 -0.1629 4.1455 0.2056
53 2 4.6160 2.0000 6.0000 2.0000
54 5 -1.5440 1.7265 6.1141 1.9532
55 3 0.9700 2.0000 6.0000 0.0000
56 6 -2.7180 1.9113 5.8351 0.2344
57 3 0.9700 2.0000 4.0000 2.0000
58 6 -2.7180 2.1986 3.9384 2.2162
59 3 0.9700 0.0000 6.0000 2.0000
60 6 -2.7180 0.1956 5.8321 1.8466
61 1 5.0420 0.0000 4.0000 4.0000
62 4 -2.8700 0.0968 4.2230 4.1758
63 2 4.6160 2.0000 6.0000 6.0000
64 5 -1.5440 1.9871 5.8519 5.7394
65 3 0.9700 2.0000 6.0000 4.0000
66 6 -2.7180 1.8219 6.2171 3.8945
67 3 0.9700 2.0000 4.0000 6.0000
68 6 -2.7180 2.0382 4.0286 5.7038
69 3 0.9700 0.0000 6.0000 6.0000
70 6 -2.7180 0.1577 6.2552 5.9951
71 1 5.0420 0.0000 4.0000 8.0000
72 4 -2.8700 0.2159 3.8363 8.1289
73 2 4.6160 2.0000 6.0000 10.0000
74 5 -1.5440 2.2457 6.1518 9.9190
75 3 0.9700 2.0000 6.0000 8.0000
76 6 -2.7180 1.7082 6.0152 7.9322
77 3 0.9700 2.0000 4.0000 10.0000
78 6 -2.7180 1.9854 4.2952 10.0514
79 3 0.9700 0.0000 6.0000 10.0000
80 6 -2.7180 0.2989 5.9923 9.9761
81 1 5.0420 0.0000 4.0000 12.0000
82 4 -2.8700 0.2574 4.1383 11.9319
83 2 4.6160 2.0000 6.0000 14.0000
84 5 -1.5440 1.7661 5.8356 14.0909
85 3 0.9700 2.0000 6.0000 12.0000
86 6 -2.7180 2.1039 5.7195 12.0229
87 3 0.9700 2.0000 4.0000 14.0000
88 6 -2.7180 2.0974 3.7837 13.8163
89 3 0.9700 0.0000 6.0000 14.0000
90 6 -2.7180 0.1652 5.7573 14.0618
91 1 5.0420 0.0000 4.0000 16.0000
92 4 -2.8700 0.1435 3.7372 15.9809
93 2 4.6160 2.0000 6.0000 18.0000
94 5 -1.5440 1.7184 6.0216 17.8988
95 3 0.9700 2.0000 6.0000 16.0000
96 6 -2.7180 1.7338 6.0996 16.0961
97 3 0.9700 2.0000 4.0000 18.0000
98 6 -2.7180 1.8819 4.1008 17.7433
99 3 0.9700 0.0000 6.0000 18.0000
100 6 -2.7180 -0.2188 5.7956 17.9806
101 1 5.0420 0.0000 8.0000 0.0000
102 4 -2.8700 -0.0793 8.2891 -0.0108
103 2 4.6160 2.0000 10.0000 2.0000
104 5 -1.5440 2.1904 10.1946 2.1260
105 3 0.9700 2.0000 10.0000 0.0000
106 6 -2.7180 2.0335 10.2177 -0.2037
107 3 0.9700 2.0000 8.0000 2.0000
108 6 -2.7180 2.2321 8.0974 1.8368
109 3 0.9700 0.0000 10.0000 2.0000
110 6 -2.7180 0.1414 10.1506 2.2175
111 1 5.0420 0.0000 8.0000 4.0000
112 4 -2.8700 -0.0736 8.2871 4.0461
113 2 4.6160 2.0000 10.0000 6.0000
114 5 -1.5440 1.7689 9.8774 6.1468
115 3 0.9700 2.0000 10.0000 4.0000
116 6 -2.7180 2.2501 9.8350 3.9845
117 3 0.9700 2.0000 8.0000 6.0000
118 6 -2.7180 1.9098 8.2583 5.8769
119 3 0.9700 0.0000 10.0000 6.0000
120 6 -2.7180 0.2402 9.8873 6.1401
121 1 5.0420 0.0000 8.0000 8.0000
122 4 -2.8700 -0.1335 8.1512 7.7779
123 2 4.6160 2.0000 10.0000 10.0000
124 5 -1.5440 2.0990 10.1293 9.7480
125 3 0.9700 2.0000 10.0000 8.0000
126 6 -2.7180 1.8120 10.1185 7.7985
127 3 0.9700 2.0000 8.0000 10.0000
128 6 -2.7180 1.9976 7.7586 9.8219
129 3 0.9700 0.0000 10.0000 10.0000
130 6 -2.7180 -0.0067 10.1683 9.7517
131 1 5.0420 0.0000 8.0000 12.0000
132 4 -2.8700 0.1986 8.1446 11.8278
133 2 4.6160 2.0000 10.0000 14.0000
134 5 -1.5440 1.9972 10.2528 13.8384
135 3 0.9700 2.0000 10.0000 12.0000
136 6 -2.7180 2.2345 10.1014 12.1573
137 3 0.9700 2.0000 8.0000 14.0000
138 6 -2.7180 1.9953 8.2237 13.8002
139 3 0.9700 0.0000 10.0000 14.0000
140 6 -2.7180 -0.2812 9.9030 14.0389
141 1 5.0420 0.0000 8.0000 16.0000
142 4 -2.8700 0.0335 8.0782 16.2877
143 2 4.6160 2.0000 10.0000 18.0000
144 5 -1.5440 1.7234 10.1138 18.0227
145 3 0.9700 2.0000 10.0000 16.0000
146 6 -2.7180 1.9839 9.7054 15.9458
147 3 0.9700 2.0000 8.0000 18.0000
148 6 -2.7180 2.1137 8.0712 17.7317
149 3 0.9700 0.0000 10.0000 18.0000
150 6 -2.7180 0.1286 10.0354 18.2687
151 1 5.0420 0.0000 12.0000 0.0000
152 4 -2.8700 -0.1519 11.9014 -0.2392
153 2 4.6160 2.0000 14.0000 2.0000
154 5 -1.5440 2.0010 14.2703 1.8699
155 3 0.9700 2.0000 14.0000 0.0000
156 6 -2.7180 1.7481 13.8570 -0.0779
157 3 0.9700 2.0000 12.0000 2.0000
158 6 -2.7180 2.2713 12.0042 1.8721
159 3 0.9700 0.0000 14.0000 2.0000
160 6 -2.7180 0.1176 13.7473 2.1109
161 1 5.0420 0.0000 12.0000 4.0000
162 4 -2.8700 -0.0276 12.2859 3.9133
163 2 4.6160 2.0000 14.0000 6.0000
164 5 -1.5440 2.1089 14.0303 5.7221
165 3 0.9700 2.0000 14.0000 4.0000
166 6 -2.7180 2.0852 13.7834 3.8107
167 3 0.9700 2.0000 12.0000 6.0000
168 6 -2.7180 1.8124 12.1870 6.1409
169 3 0.9700 0.0000 14.0000 6.0000
170 6 -2.7180 -0.2560 13.9632 5.8479
171 1 5.0420 0.0000 12.0000 8.0000
172 4 -2.8700 0.0306 12.2754 7.8851
173 2 4.6160 2.0000 14.0000 10.0000
174 5 -1.5440 2.2775 13.9338 9.9072
175 3 0.9700 2.0000 14.0000 8.0000
176 6 -2.7180 2.1874 14.2179 8.0860
177 3 0.9700 2.0000 12.0000 10.0000
178 6 -2.7180 1.7607 11.8873 9.8585
179 3 0.9700 0.0000 14.0000 10.0000
180 6 -2.7180 -0.1496 13.7716 10.1243
181 1 5.0420 0.0000 12.0000 12.0000
182 4 -2.8700 0.2571 11.9363 12.1409
183 2 4.6160 2.0000 14.0000 14.0000
184 5 -1.5440 2.2785 14.0491 13.9000
185 3 0.9700 2.0000 14.0000 12.0000
186 6 -2.7180 1.8759 13.7341 11.9375
187 3 0.9700 2.0000 12.0000 14.0000
188 6 -2.7180 2.1458 11.8294 14.1991
189 3 0.9700 0.0000 14.0000 14.0000
190 6 -2.7180 0.0151 14.2182 13.7947
191 1 5.0420 0.0000 12.0000 16.0000
192 4 -2.8700 -0.0768 12.1570 15.7561
193 2 4.6160 2.0000 14.0000 18.0000
194 5 -1.5440 2.0454 13.7129 18.0742
195 3 0.9700 2.0000 14.0000 16.0000
196 6 -2.7180 2.2384 13.9994 15.8178
197 3 0.9700 2.0000 12.0000 18.0000
198 6 -2.7180 1.9373 11.7532 18.1586
199 3 0.9700 0.0000 14.0000 18.0000
200 6 -2.7180 0.0983 13.8320 17.7717
201 1 5.0420 0.0000 16.0000 0.0000
202 4 -2.8700 -0.1012 16.1788 0.2186
203 2 4.6160 2.0000 18.0000 2.0000
204 5 -1.5440 2.0806 18.1159 2.2647
205 3 0.9700 2.0000 18.0000 0.0000
206 6 -2.7180 1.7109 18.0796 -0.0092
207 3 0.9700 2.0000 16.0000 2.0000
208 6 -2.7180 1.7833 16.2074 1.9984
209 3 0.9700 0.0000 18.0000 2.0000
210 6 -2.7180 0.2004 17.8273 1.8585
211 1 5.0420 0.0000 16.0000 4.0000
212 4 -2.8700 0.1307 15.7324 4.0365
213 2 4.6160 2.0000 18.0000 6.0000
214 5 -1.5440 1.9033 18.2638 6.1051
215 3 0.9700 2.0000 18.0000 4.0000
216 6 -2.7180 1.8578 17.7769 3.8586
217 3 0.9700 2.0000 16.0000 6.0000
218 6 -2.7180 2.2989 15.9938 5.9747
219 3 0.9700 0.0000 18.0000 6.0000
220 6 -2.7180 -0.0256 18.1969 5.7751
221 1 5.0420 0.0000 16.0000 8.0000
222 4 -2.8700 0.2467 15.8405 7.9394
223 2 4.6160 2.0000 18.0000 10.0000
224 5 -1.5440 2.1650 17.7719 10.1037
225 3 0.9700 2.0000 18.0000 8.0000
226 6 -2.7180 1.9842 17.7032 8.0408
227 3 0.9700 2.0000 16.0000 10.0000
228 6 -2.7180 2.1688 16.1855 9.8354
229 3 0.9700 0.0000 18.0000 10.0000
230 6 -2.7180 -0.0059 18.2277 10.1952
231 1 5.0420 0.0000 16.0000 12.0000
232 4 -2.8700 -0.0860 15.7190 12.0602
233 2 4.6160 2.0000 18.0000 14.0000
234 5 -1.5440 2.0437 18.2060 13.7863
235 3 0.9700 2.0000 18.0000 12.0000
236 6 -2.7180 1.8134 18.2287 11.9465
237 3 0.9700 2.0000 16.0000 14.0000
238 6 -2.7180 2.1940 15.9649 13.7739
239 3 0.9700 0.0000 18.0000 14.0000
240 6 -2.7180 0.1066 17.7957 14.1920
241 1 5.0420 0.0000 16.0000 16.0000
242 4 -2.8700 0.1087 15.9074 15.7362
243 2 4.6160 2.0000 18.0000 18.0000
244 5 -1.5440 2.2864 18.0477 17.9246
245 3 0.9700 2.0000 18.0000 16.0000
246 6 -2.7180 1.8559 17.9626 16.2605
247 3 0.9700 2.0000 16.0000 18.0000
248 6 -2.7180 2.2927 16.0042 18.0654
249 3 0.9700 0.0000 18.0000 18.0000
250 6 -2.7180 0.0575 17.7066 18.0250
251 1 5.0420 4.0000 0.0000 0.0000
252 4 -2.8700 3.7782 -0.1905 -0.0672
253 2 4.6160 6.0000 2.0000 2.0000
254 5 -1.5440 5.7182 1.9284 2.0737
255 3 0.9700 6.0000 2.0000 0.0000
256 6 -2.7180 6.0575 1.7543 -0.1623
257 3 0.9700 6.0000 0.0000 2.0000
258 6 -2.7180 5.7705 -0.1482 1.8761
259 3 0.9700 4.0000 2.0000 2.0000
260 6 -2.7180 3.9095 2.2858 1.9898
261 1 5.0420 4.0000 0.0000 4.0000
262 4 -2.8700 3.9814 -0.1944 4.2277
263 2 4.6160 6.0000 2.0000 6.0000
264 5 -1.5440 6.1085 2.2608 6.1010
265 3 0.9700 6.0000 2.0000 4.0000
266 6 -2.7180 6.1370 2.2566 3.9268
267 3 0.9700 6.0000 0.0000 6.0000
268 6 -2.7180 6.1872 0.2344 5.9970
269 3 0.9700 4.0000 2.0000 6.0000
270 6 -2.7180 4.2605 1.8667 5.9338
271 1 5.0420 4.0000 0.0000 8.0000
272 4 -2.8700 4.0984 0.0331 7.7185
273 2 4.6160 6.0000 2.0000 10.0000
274 5 -1.5440 5.8494 2.2588 9.9810
275 3 0.9700 6.0000 2.0000 8.0000
276 6 -2.7180 5.8848 2.2445 8.1302
277 3 0.9700 6.0000 0.0000 10.0000
278 6 -2.7180 6.1841 -0.0033 10.2369
279 3 0.9700 4.0000 2.0000 10.0000
280 6 -2.7180 4.1154 1.7731 9.8412
281 1 5.0420 4.0000 0.0000 12.0000
282 4 -2.8700 4.2860 -0.0569 11.9295
283 2 4.6160 6.0000 2.0000 14.0000
284 5 -1.5440 6.1572 2.2490 14.0572
285 3 0.9700 6.0000 2.0000 12.0000
286 6 -2.7180 6.0169 2.2995 11.9986
287 3 0.9700 6.0000 0.0000 14.0000
288 6 -2.7180 5.8710 -0.1703 13.7894
289 3 0.9700 4.0000 2.0000 14.0000
290 6 -2.7180 4.0120 1.8740 13.7280
291 1 5.0420 4.0000 0.0000 16.0000
292 4 -2.8700 3.7786 0.0752 16.1880
293 2 4.6160 6.0000 2.0000 18.0000
294 5 -1.5440 6.1278 2.2458 17.8848
295 3 0.9700 6.0000 2.0000 16.0000
296 6 -2.7180 6.2833 2.0170 15.9029
297 3 0.9700 6.0000 0.0000 18.0000
298 6 -2.7180 5.8917 0.2259 18.1650
299 3 0.9700 4.0000 2.0000 18.0000
300 6 -2.7180 3.7575 2.1376 18.1108
301 1 5.0420 4.0000 4.0000 0.0000
302 4 -2.8700 3.9441 3.7681 -0.1819
303 2 4.6160 6.0000 6.0000 2.0000
304 5 -1.5440 5.7140 5.9884 1.9101
305 3 0.9700 6.0000 6.0000 0.0000
306 6 -2.7180 5.8068 6.1371 -0.1841
307 3 0.9700 6.0000 4.0000 2.0000
308 6 -2.7180 5.7283 3.9042 1.9162
309 3 0.9700 4.0000 6.0000 2.0000
310 6 -2.7180 3.8226 6.0916 1.7760
311 1 5.0420 4.0000 4.0000 4.0000
312 4 -2.8700 4.2008 3.8598 3.8267
313 2 4.6160 6.0000 6.0000 6.0000
314 5 -1.5440 6.2589 5.8786 5.9093
315 3 0.9700 6.0000 6.0000 4.0000
316 6 -2.7180 5.8493 6.1947 4.1715
317 3 0.9700 6.0000 4.0000 6.0000
318 6 -2.7180 6.1819 4.1408 6.1925
319 3 0.9700 4.0000 6.0000 6.0000
320 6 -2.7180 4.2046 6.1161 6.1861
321 1 5.0420 4.0000 4.0000 8.0000
322 4 -2.8700 3.7631 4.0098 8.1838
323 2 4.6160 6.0000 6.0000 10.0000
324 5 -1.5440 5.7095 6.0003 9.9249
325 3 0.9700 6.0000 6.0000 8.0000
326 6 -2.7180 6.2164 6.0824 8.1908
327 3 0.9700 6.0000 4.0000 10.0000
328 6 -2.7180 6.1570 4.2545 9.9762
329 3 0.9700 4.0000 6.0000 10.0000
330 6 -2.7180 4.0462 5.7477 10.1556
331 1 5.0420 4.0000 4.0000 12.0000
332 4 -2.8700 4.2998 4.0095 11.9956
333 2 4.6160 6.0000 6.0000 14.0000
334 5 -1.5440 6.1220 5.7777 14.1604
335 3 0.9700 6.0000 6.0000 12.0000
336 6 -2.7180 5.7594 6.1611 12.0785
337 3 0.9700 6.0000 4.0000 14.0000
338 6 -2.7180 5.9758 3.7415 14.1504
339 3 0.9700 4.0000 6.0000 14.0000
340 6 -2.7180 4.1759 6.1068 14.2183
341 1 5.0420 4.0000 4.0000 16.0000
342 4 -2.8700 3.7849 4.0030 15.7909
343 2 4.6160 6.0000 6.0000 18.0000
344 5 -1.5440 6.0363 6.1717 17.7567
345 3 0.9700 6.0000 6.0000 16.0000
346 6 -2.7180 6.2560 5.9052 16.1244
347 3 0.9700 6.0000 4.0000 18.0000
348 6 -2.7180 5.9063 3.7956 17.8014
349 3 0.9700 4.0000 6.0000 18.0000
350 6 -2.7180 3.8651 6.1414 17.7724
351 1 5.0420 4.0000 8.0000 0.0000
352 4 -2.8700 3.8578 7.7812 -0.1480
353 2 4.6160 6.0000 10.0000 2.0000
354 5 -1.5440 5.7068 10.0632 2.0042
355 3 0.9700 6.0000 10.0000 0.0000
356 6 -2.7180 5.8541 9.8159 -0.1865
357 3 0.9700 6.0000 8.0000 2.0000
358 6 -2.7180 5.9599 7.7085 2.0586
359 3 0.9700 4.0000 10.0000 2.0000
360 6 -2.7180 3.9637 9.8616 2.2637
361 1 5.0420 4.0000 8.0000 4.0000
362 4 -2.8700 4.2120 7.7886 4.0189
363 2 4.6160 6.0000 10.0000 6.0000
364 5 -1.5440 5.9688 9.8536 6.2600
365 3 0.9700 6.0000 10.0000 4.0000
366 6 -2.7180 6.2279 10.0137 3.8054
367 3 0.9700 6.0000 8.0000 6.0000
368 6 -2.7180 5.7135 8.0613 5.9354
369 3 0.9700 4.0000 10.0000 6.0000
370 6 -2.7180 3.8309 10.0274 5.7537
371 1 5.0420 4.0000 8.0000 8.0000
372 4 -2.8700 4.0347 7.8378 7.7500
373 2 4.6160 6.0000 10.0000 10.0000
374 5 -1.5440 5.9659 9.8391 10.2509
375 3 0.9700 6.0000 10.0000 8.0000
376 6 -2.7180 6.2304 9.8972 7.8377
377 3 0.9700 6.0000 8.0000 10.0000
378 6 -2.7180 5.9548 7.9340 10.2891
379 3 0.9700 4.0000 10.0000 10.0000
380 6 -2.7180 3.9407 10.2052 10.2106
381 1 5.0420 4.0000 8.0000 12.0000
382 4 -2.8700 4.2916 7.9561 11.9450
383 2 4.6160 6.0000 10.0000 14.0000
384 5 -1.5440 6.1950 9.9141 13.7888
385 3 0.9700 6.0000 10.0000 12.0000
386 6 -2.7180 6.0417 10.2405 11.8255
387 3 0.9700 6.0000 8.0000 14.0000
388 6 -2.7180 5.9527 7.8162 14.2323
389 3 0.9700 4.0000 10.0000 14.0000
390 6 -2.7180 4.0853 9.7681 14.1701
391 1 5.0420 4.0000 8.0000 16.0000
392 4 -2.8700 4.1842 7.7685 16.0497
393 2 4.6160 6.0000 10.0000 18.0000
394 5 -1.5440 5.9162 10.2867 18.0276
395 3 0.9700 6.0000 10.0000 16.0000
396 6 -2.7180 5.7226 9.9726 16.1108
397 3 0.9700 6.0000 8.0000 18.0000
398 6 -2.7180 6.2894 8.0055 18.0788
399 3 0.9700 4.0000 10.0000 18.0000
400 6 -2.7180 4.2298 10.0974 17.8335
401 1 5.0420 4.0000 12.0000 0.0000
402 4 -2.8700 3.9506 11.7984 0.2166
403 2 4.6160 6.0000 14.0000 2.0000
404 5 -1.5440 6.2475 13.9965 2.1695
405 3 0.9700 6.0000 14.0000 0.0000
406 6 -2.7180 5.7161 14.0649 -0.0719
407 3 0.9700 6.0000 12.0000 2.0000
408 6 -2.7180 6.2679 12.0483 2.1261
409 3 0.9700 4.0000 14.0000 2.0000
410 6 -2.7180 3.8753 13.7684 2.1443
411 1 5.0420 4.0000 12.0000 4.0000
412 4 -2.8700 3.8482 11.7474 3.9440
413 2 4.6160 6.0000 14.0000 6.0000
414 5 -1.5440 6.2888 13.9292 6.0399
415 3 0.9700 6.0000 14.0000 4.0000
416 6 -2.7180 5.9166 13.7118 4.0001
417 3 0.9700 6.0000 12.0000 6.0000
418 6 -2.7180 6.2450 11.9520 5.8336
419 3 0.9700 4.0000 14.0000 6.0000
420 6 -2.7180 3.7384 14.0962 5.8890
421 1 5.0420 4.0000 12.0000 8.0000
422 4 -2.8700 4.1271 11.9644 7.7306
423 2 4.6160 6.0000 14.0000 10.0000
424 5 -1.5440 5.9004 14.1613 10.2325
425 3 0.9700 6.0000 14.0000 8.0000
426 6 -2.7180 6.1976 14.1539 8.1651
427 3 0.9700 6.0000 12.0000 10.0000
428 6 -2.7180 6.2325 12.1884 10.0216
429 3 0.9700 4.0000 14.0000 10.0000
430 6 -2.7180 3.8402 13.9061 10.2359
431 1 5.0420 4.0000 12.0000 12.0000
432 4 -2.8700 4.1857 11.9619 12.2325
433 2 4.6160 6.0000 14.0000 14.0000
434 5 -1.5440 5.7697 13.8522 13.8771
435 3 0.9700 6.0000 14.0000 12.0000
436 6 -2.7180 5.8209 14.2353 11.9494
437 3 0.9700 6.0000 12.0000 14.0000
438 6 -2.7180 6.2113 11.9993 14.2130
439 3 0.9700 4.0000 14.0000 14.0000
440 6 -2.7180 3.7052 14.0439 14.0344
441 1 5.0420 4.0000 12.0000 16.0000
442 4 -2.8700 4.2198 12.0297 16.2020
443 2 4.6160 6.0000 14.0000 18.0000
444 5 -1.5440 6.2447 13.9198 17.8461
445 3 0.9700 6.0000 14.0000 16.0000
446 6 -2.7180 6.2156 13.7952 15.9605
447 3 0.9700 6.0000 12.0000 18.0000
448 6 -2.7180 5.7940 12.0364 18.2151
449 3 0.9700 4.0000 14.0000 18.0000
450 6 -2.7180 4.1792 14.0341 17.7618
451 1 5.0420 4.0000 16.0000 0.0000
452 4 -2.8700 3.8924 16.0371 -0.2776
453 2 4.6160 6.0000 18.0000 2.0000
454 5 -1.5440 5.8225 17.7633 1.9504
455 3 0.9700 6.0000 18.0000 0.0000
456 6 -2.7180 6.0603 18.2939 -0.0005
457 3 0.9700 6.0000 16.0000 2.0000
458 6 -2.7180 5.7432 15.8909 2.1102
459 3 0.9700 4.0000 18.0000 2.0000
460 6 -2.7180 4.2736 17.8771 1.9988
461 1 5.0420 4.0000 16.0000 4.0000
462 4 -2.8700 4.2941 16.0555 4.0199
463 2 4.6160 6.0000 18.0000 6.0000
464 5 -1.5440 5.9154 17.9017 6.2705
465 3 0.9700 6.0000 18.0000 4.0000
466 6 -2.7180 5.8629 17.9878 3.7334
467 3 0.9700 6.0000 16.0000 6.0000
468 6 -2.7180 6.2297 16.0948 6.1680
469 3 0.9700 4.0000 18.0000 6.0000
470 6 -2.7180 3.9892 17.7022 5.9658
471 1 5.0420 4.0000 16.0000 8.0000
472 4 -2.8700 3.8553 15.9618 8.2600
473 2 4.6160 6.0000 18.0000 10.0000
474 5 -1.5440 6.2594 18.1346 10.0679
475 3 0.9700 6.0000 18.0000 8.0000
476 6 -2.7180 6.1900 18.0895 8.2142
477 3 0.9700 6.0000 16.0000 10.0000
478 6 -2.7180 6.2273 15.8075 9.9640
479 3 0.9700 4.0000 18.0000 10.0000
480 6 -2.7180 3.9928 17.8538 9.7381
481 1 5.0420 4.0000 16.0000 12.0000
482 4 -2.8700 4.2243 16.1178 11.8394
483 2 4.6160 6.0000 18.0000 14.0000
484 5 -1.5440 5.7623 18.0965 13.8445
485 3 0.9700 6.0000 18.0000 12.0000
486 6 -2.7180 5.7582 17.9501 11.8296
487 3 0.9700 6.0000 16.0000 14.0000
488 6 -2.7180 6.0853 16.2315 13.8293
489 3 0.9700 4.0000 18.0000 14.0000
490 6 -2.7180 4.1993 18.1005 13.7995
491 1 5.0420 4.0000 16.0000 16.0000
492 4 -2.8700 4.1258 15.8838 15.7537
493 2 4.6160 6.0000 18.0000 18.0000
494 5 -1.5440 5.7463 18.1306 18.0927
495 3 0.9700 6.0000 18.0000 16.0000
496 6 -2.7180 6.1787 18.0874 16.2246
497 3 0.9700 6.0000 16.0000 18.0000
498 6 -2.7180 5.7080 15.9557 17.9471
499 3 0.9700 4.0000 18.0000 18.0000
500 6 -2.7180 3.9863 18.2531 17.8396
501 1 5.0420 8.0000 0.0000 0.0000
502 4 -2.8700 8.0355 -0.2687 -0.1287
503 2 4.6160 10.0000 2.0000 2.0000
504 5 -1.5440 10.1159 1.7851 2.1744
505 3 0.9700 10.0000 2.0000 0.0000
506 6 -2.7180 9.8945 2.1150 -0.2562
507 3 0.9700 10.0000 0.0000 2.0000
508 6 -2.7180 10.1547 -0.0003 2.2570
509 3 0.9700 8.0000 2.0000 2.0000
510 6 -2.7180 7.8619 1.8143 1.8091
511 1 5.0420 8.0000 0.0000 4.0000
512 4 -2.8700 8.2306 -0.0385 3.8121
513 2 4.6160 10.0000 2.0000 6.0000
514 5 -1.5440 10.2808 2.0074 5.8947
515 3 0.9700 10.0000 2.0000 4.0000
516 6 -2.7180 10.1283 2.2203 3.8418
517 3 0.9700 10.0000 0.0000 6.0000
518 6 -2.7180 10.0500 -0.1400 5.7394
519 3 0.9700 8.0000 2.0000 6.0000
520 6 -2.7180 8.0881 2.1336 5.7462
521 1 5.0420 8.0000 0.0000 8.0000
522 4 -2.8700 8.2909 0.0390 7.9381
523 2 4.6160 10.0000 2.0000 10.0000
524 5 -1.5440 9.7041 1.9521 9.9870
525 3 0.9700 10.0000 2.0000 8.0000
526 6 -2.7180 10.0303 1.8727 8.2700
527 3 0.9700 10.0000 0.0000 10.0000
528 6 -2.7180 10.2335 0.1852 9.9657
529 3 0.9700 8.0000 2.0000 10.0000
530 6 -2.7180 8.1235 2.1497 9.7712
531 1 5.0420 8.0000 0.0000 12.0000
532 4 -2.8700 7.9942 -0.2979 12.0347
533 2 4.6160 10.0000 2.0000 14.0000
534 5 -1.5440 10.2717 1.9684 13.8767
535 3 0.9700 10.0000 2.0000 12.0000
536 6 -2.7180 10.2412 2.1529 11.9080
537 3 0.9700 10.0000 0.0000 14.0000
538 6 -2.7180 9.8611 0.2659 14.0059
539 3 0.9700 8.0000 2.0000 14.0000
540 6 -2.7180 8.0748 2.1410 13.7460
541 1 5.0420 8.0000 0.0000 16.0000
542 4 -2.8700 8.0909 0.1965 15.7923
543 2 4.6160 10.0000 2.0000 18.0000
544 5 -1.5440 10.0475 2.2266 17.8092
545 3 0.9700 10.0000 2.0000 16.0000
546 6 -2.7180 10.0427 2.0812 15.7144
547 3 0.9700 10.0000 0.0000 18.0000
548 6 -2.7180 10.1490 0.2561 18.0471
549 3 0.9700 8.0000 2.0000 18.0000
550 6 -2.7180 8.0854 1.8737 18.2584
551 1 5.0420 8.0000 4.0000 0.0000
552 4 -2.8700 7.9785 4.1051 0.2802
553 2 4.6160 10.0000 6.0000 2.0000
554 5 -1.5440 9.7566 5.8410 2.0741
555 3 0.9700 10.0000 6.0000 0.0000
556 6 -2.7180 9.9513 5.7233 0.1052
557 3 0.9700 10.0000 4.0000 2.0000
558 6 -2.7180 9.7878 3.9552 1.7927
559 3 0.9700 8.0000 6.0000 2.0000
560 6 -2.7180 8.2810 6.0184 2.1034
561 1 5.0420 8.0000 4.0000 4.0000
562 4 -2.8700 7.9525 4.2871 3.9269
563 2 4.6160 10.0000 6.0000 6.0000
564 5 -1.5440 10.2018 6.2020 5.9079
565 3 0.9700 10.0000 6.0000 4.0000
566 6 -2.7180 10.0596 6.0176 4.2935
567 3 0.9700 10.0000 4.0000 6.0000
568 6 -2.7180 9.8427 3.7493 6.0492
569 3 0.9700 8.0000 6.0000 6.0000
570 6 -2.7180 7.7539 5.8505 6.0841
571 1 5.0420 8.0000 4.0000 8.0000
572 4 -2.8700 7.7756 4.1853 8.0729
573 2 4.6160 10.0000 6.0000 10.0000
574 5 -1.5440 10.2483 5.9456 10.1594
575 3 0.9700 10.0000 6.0000 8.0000
576 6 -2.7180 9.7907 6.0451 8.2101
577 3 0.9700 10.0000 4.0000 10.0000
578 6 -2.7180 9.8896 4.0149 10.2785
579 3 0.9700 8.0000 6.0000 10.0000
580 6 -2.7180 7.8573 5.7980 10.1698
581 1 5.0420 8.0000 4.0000 12.0000
582 4 -2.8700 7.9950 3.7671 11.8109
583 2 4.6160 10.0000 6.0000 14.0000
584 5 -1.5440 10.1886 6.1334 13.8085
585 3 0.9700 10.0000 6.0000 12.0000
586 6 -2.7180 10.0722 6.1780 11.7695
587 3 0.9700 10.0000 4.0000 14.0000
588 6 -2.7180 9.9384 3.8602 14.2582
589 3 0.9700 8.0000 6.0000 14.0000
590 6 -2.7180 7.8205 6.2266 13.9200
591 1 5.0420 8.0000 4.0000 16.0000
592 4 -2.8700 7.9995 4.2376 16.1831
593 2 4.6160 10.0000 6.0000 18.0000
594 5 -1.5440 9.9324 6.1759 17.7665
595 3 0.9700 10.0000 6.0000 16.0000
596 6 -2.7180 10.2297 6.1929 16.0031
597 3 0.9700 10.0000 4.0000 18.0000
598 6 -2.7180 10.1093 4.2650 17.9113
599 3 0.9700 8.0000 6.0000 18.0000
600 6 -2.7180 8.1717 6.2163 18.1171
601 1 5.0420 8.0000 8.0000 0.0000
602 4 -2.8700 7.8265 7.9590 -0.2413
603 2 4.6160 10.0000 10.0000 2.0000
604 5 -1.5440 9.8699 9.7317 1.9674
605 3 0.9700 10.0000 10.0000 0.0000
606 6 -2.7180 10.1227 10.2698 -0.0465
607 3 0.9700 10.0000 8.0000 2.0000
608 6 -2.7180 10.0073 8.1847 2.2363
609 3 0.9700 8.0000 10.0000 2.0000
610 6 -2.7180 8.0568 10.2247 1.8095
611 1 5.0420 8.0000 8.0000 4.0000
612 4 -2.8700 8.2527 7.8944 3.8777
613 2 4.6160 10.0000 10.0000 6.0000
614 5 -1.5440 10.0963 9.9883 5.7161
615 3 0.9700 10.0000 10.0000 4.0000
616 6 -2.7180 10.1548 10.0999 4.2368
617 3 0.9700 10.0000 8.0000 6.0000
618 6 -2.7180 10.0640 8.1530 5.7500
619 3 0.9700 8.0000 10.0000 6.0000
620 6 -2.7180 8.1836 10.2342 5.9623
621 1 5.0420 8.0000 8.0000 8.0000
622 4 -2.8700 7.8748 8.1802 7.7954
623 2 4.6160 10.0000 10.0000 10.0000
624 5 -1.5440 10.0541 9.9525 10.2912
625 3 0.9700 10.0000 10.0000 8.0000
626 6 -2.7180 9.7032 10.0186 8.0395
627 3 0.9700 10.0000 8.0000 10.0000
628 6 -2.7180 9.7183 7.9747 10.1001
629 3 0.9700 8.0000 10.0000 10.0000
630 6 -2.7180 7.7112 9.9321 10.0446
631 1 5.0420 8.0000 8.0000 12.0000
632 4 -2.8700 7.9142 8.2582 12.1263
633 2 4.6160 10.0000 10.0000 14.0000
634 5 -1.5440 9.8676 10.0759 14.2583
635 3 0.9700 10.0000 10.0000 12.0000
636 6 -2.7180 10.0840 10.1885 12.2177
637 3 0.9700 10.0000 8.0000 14.0000
638 6 -2.7180 10.1336 7.7609 13.8777
639 3 0.9700 8.0000 10.0000 14.0000
640 6 -2.7180 7.9509 9.7776 13.8048
641 1 5.0420 8.0000 8.0000 16.0000
642 4 -2.8700 8.1018 8.1021 16.2631
643 2 4.6160 10.0000 10.0000 18.0000
644 5 -1.5440 10.1291 9.7293 17.9944
645 3 0.9700 10.0000 10.0000 16.0000
646 6 -2.7180 9.8859 10.1381 15.7594
647 3 0.9700 10.0000 8.0000 18.0000
648 6 -2.7180 10.2048 8.1187 18.1843
649 3 0.9700 8.0000 10.0000 18.0000
650 6 -2.7180 7.7167 10.0965 17.9799
651 1 5.0420 8.0000 12.0000 0.0000
652 4 -2.8700 7.7248 12.0883 0.0806
653 2 4.6160 10.0000 14.0000 2.0000
654 5 -1.5440 9.9023 14.1630 1.7679
655 3 0.9700 10.0000 14.0000 0.0000
656 6 -2.7180 9.8647 13.8714 -0.2349
657 3 0.9700 10.0000 12.0000 2.0000
658 6 -2.7180 9.8339 12.1209 1.7814
659 3 0.9700 8.0000 14.0000 2.0000
660 6 -2.7180 8.0460 13.7162 1.9143
661 1 5.0420 8.0000 12.0000 4.0000
662 4 -2.8700 8.2643 11.9259 4.1211
663 2 4.6160 10.0000 14.0000 6.0000
664 5 -1.5440 10.0060 14.0050 5.7001
665 3 0.9700 10.0000 14.0000 4.0000
666 6 -2.7180 10.2734 14.0414 3.8837
667 3 0.9700 10.0000 12.0000 6.0000
668 6 -2.7180 10.0061 11.9822 6.2994
669 3 0.9700 8.0000 14.0000 6.0000
670 6 -2.7180 7.7383 13.8672 6.0621
671 1 5.0420 8.0000 12.0000 8.0000
672 4 -2.8700 8.2555 12.0355 8.1531
673 2 4.6160 10.0000 14.0000 10.0000
674 5 -1.5440 10.1364 14.1303 10.2333
675 3 0.9700 10.0000 14.0000 8.0000
676 6 -2.7180 10.2970 14.0191 7.9624
677 3 0.9700 10.0000 12.0000 10.0000
678 6 -2.7180 10.0240 11.9611 9.7035
679 3 0.9700 8.0000 14.0000 10.0000
680 6 -2.7180 7.9170 14.1201 9.7379
681 1 5.0420 8.0000 12.0000 12.0000
682 4 -2.8700 7.9483 12.2949 12.0197
683 2 4.6160 10.0000 14.0000 14.0000
684 5 -1.5440 9.9896 13.7707 13.8068
685 3 0.9700 10.0000 14.0000 12.0000
686 6 -2.7180 9.9282 14.0911 12.2767
687 3 0.9700 10.0000 12.0000 14.0000
688 6 -2.7180 10.2012 12.1669 13.8527
689 3 0.9700 8.0000 14.0000 14.0000
690 6 -2.7180 8.1613 13.9095 14.2362
691 1 5.0420 8.0000 12.0000 16.0000
692 4 -2.8700 8.0288 11.9367 15.7082
693 2 4.6160 10.0000 14.0000 18.0000
694 5 -1.5440 9.9274 14.2812 17.9248
695 3 0.9700 10.0000 14.0000 16.0000
696 6 -2.7180 9.9256 13.7833 15.8063
697 3 0.9700 10.0000 12.0000 18.0000
698 6 -2.7180 9.9201 12.0497 17.7152
699 3 0.9700 8.0000 14.0000 18.0000
700 6 -2.7180 8.1740 13.8746 18.2097
701 1 5.0420 8.0000 16.0000 0.0000
702 4 -2.8700 7.9981 15.8017 0.2252
703 2 4.6160 10.0000 18.0000 2.0000
704 5 -1.5440 10.0616 18.2470 1.8413
705 3 0.9700 10.0000 18.0000 0.0000
706 6 -2.7180 9.8616 17.7588 -0.1124
707 3 0.9700 10.0000 16.0000 2.0000
708 6 -2.7180 9.8148 15.8382 1.8282
709 3 0.9700 8.0000 18.0000 2.0000
710 6 -2.7180 7.7835 17.8994 2.1817
711 1 5.0420 8.0000 16.0000 4.0000
712 4 -2.8700 8.1539 15.9496 4.2525
713 2 4.6160 10.0000 18.0000 6.0000
714 5 -1.5440 10.1461 18.2042 5.8359
715 3 0.9700 10.0000 18.0000 4.0000
716 6 -2.7180 9.7096 18.0519 4.0547
717 3 0.9700 10.0000 16.0000 6.0000
718 6 -2.7180 9.7768 15.8049 6.0462
719 3 0.9700 8.0000 18.0000 6.0000
720 6 -2.7180 8.1604 18.2099 5.8579
721 1 5.0420 8.0000 16.0000 8.0000
722 4 -2.8700 8.2103 16.2137 7.9888
723 2 4.6160 10.0000 18.0000 10.0000
724 5 -1.5440 9.8139 17.8046 10.1310
725 3 0.9700 10.0000 18.0000 8.0000
726 6 -2.7180 9.7055 17.9484 8.0246
727 3 0.9700 10.0000 16.0000 10.0000
728 6 -2.7180 10.1815 15.9403 9.7687
729 3 0.9700 8.0000 18.0000 10.0000
730 6 -2.7180 8.0536 17.8892 10.2736
731 1 5.0420 8.0000 16.0000 12.0000
732 4 -2.8700 7.8830 16.0230 12.2753
733 2 4.6160 10.0000 18.0000 14.0000
734 5 -1.5440 10.2731 17.9956 14.1241
735 3 0.9700 10.0000 18.0000 12.0000
736 6 -2.7180 10.2339 18.1363 11.8707
737 3 0.9700 10.0000 16.0000 14.0000
738 6 -2.7180 10.0295 16.1702 13.7547
739 3 0.9700 8.0000 18.0000 14.0000
740 6 -2.7180 8.2093 17.9506 14.2091
741 1 5.0420 8.0000 16.0000 16.0000
742 4 -2.8700 7.8934 15.7582 15.8580
743 2 4.6160 10.0000 18.0000 18.0000
744 5 -1.5440 10.2670 17.9815 17.8645
745 3 0.9700 10.0000 18.0000 16.0000
746 6 -2.7180 10.2276 18.1425 15.8662
747 3 0.9700 10.0000 16.0000 18.0000
748 6 -2.7180 10.1866 16.1927 17.8657
749 3 0.9700 8.0000 18.0000 18.0000
750 6 -2.7180 8.1147 17.9212 18.2658
751 1 5.0420 12.0000 0.0000 0.0000
752 4 -2.8700 11.7573 -0.0786 0.1579
753 2 4.6160 14.0000 2.0000 2.0000
754 5 -1.5440 13.9870 2.0944 2.2845
755 3 0.9700 14.0000 2.0000 0.0000
756 6 -2.7180 13.9346 1.8319 0.2397
757 3 0.9700 14.0000 0.0000 2.0000
758 6 -2.7180 13.8348 0.1202 1.7803
759 3 0.9700 12.0000 2.0000 2.0000
760 6 -2.7180 11.7912 1.8739 2.1747
761 1 5.0420 12.0000 0.0000 4.0000
762 4 -2.8700 11.7667 -0.0844 4.1686
763 2 4.6160 14.0000 2.0000 6.0000
764 5 -1.5440 14.2907 2.0376 5.9361
765 3 0.9700 14.0000 2.0000 4.0000
766 6 -2.7180 13.8902 2.0751 3.7311
767 3 0.9700 14.0000 0.0000 6.0000
768 6 -2.7180 13.7580 0.1516 6.0920
769 3 0.9700 12.0000 2.0000 6.0000
770 6 -2.7180 11.7381 2.1102 6.0963
771 1 5.0420 12.0000 0.0000 8.0000
772 4 -2.8700 11.8218 -0.0108 8.2411
773 2 4.6160 14.0000 2.0000 10.0000
774 5 -1.5440 13.8975 1.7200 10.0330
775 3 0.9700 14.0000 2.0000 8.0000
776 6 -2.7180 13.7850 1.8623 8.1575
777 3 0.9700 14.0000 0.0000 10.0000
778 6 -2.7180 13.9851 -0.1039 9.7190
779 3 0.9700 12.0000 2.0000 10.0000
780 6 -2.7180 11.8296 1.7874 9.8743
781 1 5.0420 12.0000 0.0000 12.0000
782 4 -2.8700 12.2855 0.0239 11.9109
783 2 4.6160 14.0000 2.0000 14.0000
784 5 -1.5440 13.9019 2.1883 14.2119
785 3 0.9700 14.0000 2.0000 12.0000
786 6 -2.7180 14.0805 2.2756 11.9131
787 3 0.9700 14.0000 0.0000 14.0000
788 6 -2.7180 14.0535 -0.0932 13.7199
789 3 0.9700 12.0000 2.0000 14.0000
790 6 -2.7180 11.8907 2.2710 13.9322
791 1 5.0420 12.0000 0.0000 16.0000
792 4 -2.8700 12.2309 0.1360 15.8651
793 2 4.6160 14.0000 2.0000 18.0000
794 5 -1.5440 14.2508 2.1145 18.1183
795 3 0.9700 14.0000 2.0000 16.0000
796 6 -2.7180 13.7885 1.8495 16.1503
797 3 0.9700 14.0000 0.0000 18.0000
798 6 -2.7180 14.1722 -0.0038 18.2457
799 3 0.9700 12.0000 2.0000 18.0000
800 6 -2.7180 11.9474 2.2954 18.0014
801 1 5.0420 12.0000 4.0000 0.0000
802 4 -2.8700 12.2873 3.9141 -0.0082
803 2 4.6160 14.0000 6.0000 2.0000
804 5 -1.5440 13.7063 6.0588 2.0175
805 3 0.9700 14.0000 6.0000 0.0000
806 6 -2.7180 14.1727 6.1106 -0.2189
807 3 0.9700 14.0000 4.0000 2.0000
808 6 -2.7180 14.0720 4.2828 1.9305
809 3 0.9700 12.0000 6.0000 2.0000
810 6 -2.7180 12.1964 5.8783 1.8086
811 1 5.0420 12.0000 4.0000 4.0000
812 4 -2.8700 11.7331 4.1368 4.0079
813 2 4.6160 14.0000 6.0000 6.0000
814 5 -1.5440 14.1775 5.9614 5.7612
815 3 0.9700 14.0000 6.0000 4.0000
816 6 -2.7180 13.9082 5.9658 4.2835
817 3 0.9700 14.0000 4.0000 6.0000
818 6 -2.7180 13.8388 3.7545 6.0611
819 3 0.9700 12.0000 6.0000 6.0000
820 6 -2.7180 11.7825 5.8625 6.1542
821 1 5.0420 12.0000 4.0000 8.0000
822 4 -2.8700 12.0046 4.0414 8.2971
823 2 4.6160 14.0000 6.0000 10.0000
824 5 -1.5440 14.2685 6.0009 9.8661
825 3 0.9700 14.0000 6.0000 8.0000
826 6 -2.7180 13.8634 6.0361 8.2646
827 3 0.9700 14.0000 4.0000 10.0000
828 6 -2.7180 14.2048 4.0440 9.7853
829 3 0.9700 12.0000 6.0000 10.0000
830 6 -2.7180 11.9074 5.9600 9.7175
831 1 5.0420 12.0000 4.0000 12.0000
832 4 -2.8700 12.0951 4.2834 12.0252
833 2 4.6160 14.0000 6.0000 14.0000
834 5 -1.5440 13.9326 6.2787 13.9119
835 3 0.9700 14.0000 6.0000 12.0000
836 6 -2.7180 13.8409 6.2543 12.0015