ITEM: TIMESTEP
100
ITEM: NUMBER OF ATOMS
10
ITEM: BOX BOUNDS pp pp pp
0.0000000000000000e+00 4.0000000000000000e+00
0.0000000000000000e+00 4.0000000000000000e+00
0.0000000000000000e+00 4.0400000000000000e+00
ITEM: ATOMS id type x y z
1 1 0.00456793 0.00457065 0.00456588
2 2 0.00546837 0.00550187 0.00548107
3 3 2.00531 2.00531 2.0252
4 4 2.00458 2.0045 2.02445
5 5 2.00486 2.00487 0.0053223
6 6 2.00532 2.00529 0.00487525
7 5 2.00486 0.0054084 2.02486
8 6 2.00513 0.00494731 2.0254
9 5 0.00540239 2.00485 2.02486
10 6 0.00482234 2.00519 2.02529
ITEM: TIMESTEP
200
ITEM: NUMBER OF ATOMS
10
ITEM: BOX BOUNDS pp pp pp
0.0000000000000000e+00 4.0000000000000000e+00
0.0000000000000000e+00 4.0000000000000000e+00
0.0000000000000000e+00 4.0400000000000000e+00
ITEM: ATOMS id type x y z
1 1 0.0045674 0.00457717 0.00457338
2 2 0.00548339 0.00557177 0.00538439
3 3 2.00533 2.00531 2.02521
4 4 2.0051 2.0047 2.02352
5 5 2.00487 2.00489 0.0052609
6 6 2.005 2.0046 0.00458387
7 5 2.00486 0.00540411 2.02488
8 6 2.00478 0.00509406 2.02511
9 5 0.0053834 2.00485 2.02486
10 6 0.00504217 2.00504 2.02524
ITEM: TIMESTEP
300
ITEM: NUMBER OF ATOMS
10
ITEM: BOX BOUNDS pp pp pp
0.0000000000000000e+00 4.0000000000000000e+00
0.0000000000000000e+00 4.0000000000000000e+00
0.0000000000000000e+00 4.0400000000000000e+00
ITEM: ATOMS id type x y z
1 1 0.00455594 0.00458082 0.004591
2 2 0.00545372 0.00567041 0.00476208
3 3 2.00533 2.00533 2.02521
4 4 2.00645 2.00624 2.02433
5 5 2.00484 2.00491 0.00516451
6 6 2.00432 2.00516 0.00469316
7 5 2.00485 0.00539486 2.0249
8 6 2.00463 0.00612469 2.02505
9 5 0.00537292 2.00487 2.02486
10 6 0.00591669 2.00469 2.02511
ITEM: TIMESTEP
400
ITEM: NUMBER OF ATOMS
10
ITEM: BOX BOUNDS pp pp pp
0.0000000000000000e+00 4.0000000000000000e+00
0.0000000000000000e+00 4.0000000000000000e+00
0.0000000000000000e+00 4.0400000000000000e+00
ITEM: ATOMS id type x y z
1 1 0.00453722 0.00457931 0.00461575
2 2 0.0046815 0.00566706 0.00397049
3 3 2.00534 2.00536 2.02522
4 4 2.00576 2.00555 2.02629
5 5 2.0048 2.00493 0.00506571
6 6 2.00426 2.00458 0.00594756
7 5 2.00481 0.00541692 2.02491
8 6 2.00468 0.00523011 2.02427
9 5 0.00537454 2.00488 2.02486
10 6 0.00532108 2.00488 2.02422
ITEM: TIMESTEP
500
ITEM: NUMBER OF ATOMS
10
ITEM: BOX BOUNDS pp pp pp
0.0000000000000000e+00 4.0000000000000000e+00
0.0000000000000000e+00 4.0000000000000000e+00
0.0000000000000000e+00 4.0400000000000000e+00
ITEM: ATOMS id type x y z
1 1 0.00451866 0.00458295 0.00463933
2 2 0.00410711 0.00494295 0.00371686
3 3 2.00536 2.00539 2.02522
4 4 2.00491 2.00568 2.0264
5 5 2.00473 2.00493 0.00503969
6 6 2.00483 2.00522 0.00544205
7 5 2.00477 0.00544052 2.02491
8 6 2.00439 0.00515115 2.02438
9 5 0.00539729 2.00493 2.02483
10 6 0.00514005 2.00515 2.02433
ITEM: TIMESTEP
600
ITEM: NUMBER OF ATOMS
10
ITEM: BOX BOUNDS pp pp pp
0.0000000000000000e+00 4.0000000000000000e+00
0.0000000000000000e+00 4.0000000000000000e+00
0.0000000000000000e+00 4.0400000000000000e+00
ITEM: ATOMS id type x y z
1 1 0.0044981 0.00459002 0.00466227
2 2 0.00372111 0.00442855 0.00408409
3 3 2.0054 2.00542 2.02523
4 4 2.00541 2.00647 2.02648
5 5 2.00465 2.00494 0.00506308
6 6 2.00493 2.00459 0.00528336
7 5 2.00471 0.00546054 2.02491
8 6 2.00436 0.00593141 2.02429
9 5 0.00542166 2.00496 2.02477
10 6 0.00581106 2.00442 2.02443
ITEM: TIMESTEP
700
ITEM: NUMBER OF ATOMS
10
ITEM: BOX BOUNDS pp pp pp
0.0000000000000000e+00 4.0000000000000000e+00
0.0000000000000000e+00 4.0000000000000000e+00
0.0000000000000000e+00 4.0400000000000000e+00
ITEM: ATOMS id type x y z
1 1 0.00448244 0.00459609 0.00467557
2 2 0.00367611 0.00405744 0.00440915
3 3 2.00543 2.00545 2.02524
4 4 2.00666 2.00592 2.02443
5 5 2.00455 2.00493 0.00510098
6 6 2.00313 2.00478 0.00485729
7 5 2.00462 0.00549752 2.02492
8 6 2.00395 0.00583704 2.02496
9 5 0.00543666 2.005 2.02472
10 6 0.00604665 2.00464 2.02432
ITEM: TIMESTEP
800
ITEM: NUMBER OF ATOMS
10
ITEM: BOX BOUNDS pp pp pp
0.0000000000000000e+00 4.0000000000000000e+00
0.0000000000000000e+00 4.0000000000000000e+00
0.0000000000000000e+00 4.0400000000000000e+00
ITEM: ATOMS id type x y z
1 1 0.00446386 0.00460308 0.00468859
2 2 0.00349665 0.00441403 0.00421567
3 3 2.00548 2.00548 2.02526
4 4 2.00637 2.00499 2.02444
5 5 2.00445 2.0049 0.00510875
6 6 2.00549 2.00443 0.00481735
7 5 2.0045 0.00554393 2.02492
8 6 2.00382 0.00543243 2.02488
9 5 0.00548372 2.00505 2.02465
10 6 0.00600704 2.00494 2.02516
ITEM: TIMESTEP
900
ITEM: NUMBER OF ATOMS
10
ITEM: BOX BOUNDS pp pp pp
0.0000000000000000e+00 4.0000000000000000e+00
0.0000000000000000e+00 4.0000000000000000e+00
0.0000000000000000e+00 4.0400000000000000e+00
ITEM: ATOMS id type x y z
1 1 0.00444477 0.00460915 0.00470453
2 2 0.00362025 0.0050131 0.0037616
3 3 2.00554 2.00552 2.02528
4 4 2.0068 2.00592 2.02486
5 5 2.00436 2.00487 0.00510236
6 6 2.00341 2.00473 0.00504777
7 5 2.00433 0.00559303 2.02493
8 6 2.00374 0.00554959 2.02492
9 5 0.00555697 2.0051 2.0246
10 6 0.0061493 2.00515 2.02406
ITEM: TIMESTEP
1000
ITEM: NUMBER OF ATOMS
10
ITEM: BOX BOUNDS pp pp pp
0.0000000000000000e+00 4.0000000000000000e+00
0.0000000000000000e+00 4.0000000000000000e+00
0.0000000000000000e+00 4.0400000000000000e+00
ITEM: ATOMS id type x y z
1 1 0.00442058 0.00461096 0.0047215
2 2 0.00454958 0.00575667 0.00382019
3 3 2.00559 2.00556 2.02529
4 4 2.0057 2.00628 2.02631
5 5 2.00427 2.00483 0.00510324
6 6 2.00417 2.00443 0.0053834
7 5 2.00412 0.00562531 2.02494
8 6 2.00402 0.00606948 2.02438
9 5 0.00564765 2.00516 2.02455
10 6 0.00593149 2.00474 2.02441
ITEM: TIMESTEP
1100
ITEM: NUMBER OF ATOMS
10
ITEM: BOX BOUNDS pp pp pp
0.0000000000000000e+00 4.0000000000000000e+00
0.0000000000000000e+00 4.0000000000000000e+00
0.0000000000000000e+00 4.0400000000000000e+00
ITEM: ATOMS id type x y z
1 1 0.00439267 0.00461737 0.00474408
2 2 0.00478678 0.00621622 0.004732
3 3 2.00566 2.0056 2.02532
4 4 2.00673 2.00607 2.02585
5 5 2.00418 2.00478 0.00510835
6 6 2.00395 2.0057 0.0054209
7 5 2.00391 0.00566768 2.02495
8 6 2.00337 0.00622874 2.02464
9 5 0.00572372 2.00522 2.02448
10 6 0.00608248 2.00517 2.02412
ITEM: TIMESTEP
1200
ITEM: NUMBER OF ATOMS
10
ITEM: BOX BOUNDS pp pp pp
0.0000000000000000e+00 4.0000000000000000e+00
0.0000000000000000e+00 4.0000000000000000e+00
0.0000000000000000e+00 4.0400000000000000e+00
ITEM: ATOMS id type x y z
1 1 0.00436255 0.004624 0.00477023
2 2 0.00408211 0.00561788 0.00611084
3 3 2.00573 2.00562 2.02535
4 4 2.00664 2.00543 2.02464
5 5 2.00408 2.00474 0.00514693
6 6 2.00289 2.00432 0.00467462
7 5 2.00367 0.00574257 2.02497
8 6 2.0035 0.00544793 2.0254
9 5 0.00583005 2.00527 2.0244
10 6 0.00588506 2.00514 2.02473
ITEM: TIMESTEP
1300
ITEM: NUMBER OF ATOMS
10
ITEM: BOX BOUNDS pp pp pp
0.0000000000000000e+00 4.0000000000000000e+00
0.0000000000000000e+00 4.0000000000000000e+00
0.0000000000000000e+00 4.0400000000000000e+00
ITEM: ATOMS id type x y z
1 1 0.00432793 0.00462348 0.00479591
2 2 0.00312007 0.00365861 0.00528814
3 3 2.0058 2.00565 2.02539
4 4 2.00713 2.00671 2.02621
5 5 2.00393 2.00469 0.00519272
6 6 2.00378 2.00436 0.00577156
7 5 2.00339 0.0058044 2.02498
8 6 2.0026 0.00598526 2.02505
9 5 0.00597211 2.0053 2.02433
10 6 0.00653126 2.00526 2.02383
ITEM: TIMESTEP
1400
ITEM: NUMBER OF ATOMS
10
ITEM: BOX BOUNDS pp pp pp
0.0000000000000000e+00 4.0000000000000000e+00
0.0000000000000000e+00 4.0000000000000000e+00
0.0000000000000000e+00 4.0400000000000000e+00
ITEM: ATOMS id type x y z
1 1 0.00428588 0.00462425 0.0048166
2 2 0.00369393 0.00452529 0.00369092
3 3 2.00589 2.0057 2.02544
4 4 2.00647 2.00534 2.02687
5 5 2.00373 2.00462 0.00526369
6 6 2.00344 2.00481 0.00584435
7 5 2.00306 0.00587076 2.02497
8 6 2.00347 0.00529975 2.02457
9 5 0.00612619 2.00533 2.02426
10 6 0.00580411 2.00482 2.02413
ITEM: TIMESTEP
1500
ITEM: NUMBER OF ATOMS
10
ITEM: BOX BOUNDS pp pp pp
0.0000000000000000e+00 4.0000000000000000e+00
0.0000000000000000e+00 4.0000000000000000e+00
0.0000000000000000e+00 4.0400000000000000e+00
ITEM: ATOMS id type x y z
1 1 0.00424506 0.00462434 0.00484293
2 2 0.00394102 0.00547699 0.00428155
3 3 2.00599 2.00573 2.02549
4 4 2.00784 2.00648 2.02523
5 5 2.00351 2.00455 0.00537873
6 6 2.00261 2.00412 0.00540863
7 5 2.00269 0.0059349 2.02492
8 6 2.00141 0.00635335 2.02469
9 5 0.00628731 2.00535 2.02416
10 6 0.00688745 2.00585 2.02374
ITEM: TIMESTEP
1600
ITEM: NUMBER OF ATOMS
10
ITEM: BOX BOUNDS pp pp pp
0.0000000000000000e+00 4.0000000000000000e+00
0.0000000000000000e+00 4.0000000000000000e+00
0.0000000000000000e+00 4.0400000000000000e+00
ITEM: ATOMS id type x y z
1 1 0.00420742 0.00462443 0.00486407
2 2 0.0032006 0.00467886 0.00509389
3 3 2.00608 2.00577 2.02554
4 4 2.00668 2.00731 2.02597
5 5 2.00327 2.00447 0.0055127
6 6 2.00228 2.00422 0.00557917
7 5 2.00231 0.00599757 2.02486
8 6 2.00204 0.00675609 2.02444
9 5 0.00647259 2.00539 2.02404
10 6 0.00606324 2.00533 2.02369
ITEM: TIMESTEP
1700
ITEM: NUMBER OF ATOMS
10
ITEM: BOX BOUNDS pp pp pp
0.0000000000000000e+00 4.0000000000000000e+00
0.0000000000000000e+00 4.0000000000000000e+00
0.0000000000000000e+00 4.0400000000000000e+00
ITEM: ATOMS id type x y z
1 1 0.00417428 0.00463012 0.00487651
2 2 0.00361147 0.00381176 0.00460089
3 3 2.0062 2.00582 2.0256
4 4 2.00769 2.00545 2.02594
5 5 2.00299 2.00437 0.0056697
6 6 2.00339 2.00416 0.00629377
7 5 2.00191 0.00608535 2.02478
8 6 2.00157 0.00576542 2.02467
9 5 0.00666672 2.00543 2.02388
10 6 0.00724673 2.00543 2.02413
ITEM: TIMESTEP
1800
ITEM: NUMBER OF ATOMS
10
ITEM: BOX BOUNDS pp pp pp
0.0000000000000000e+00 4.0000000000000000e+00
0.0000000000000000e+00 4.0000000000000000e+00
0.0000000000000000e+00 4.0400000000000000e+00
ITEM: ATOMS id type x y z
1 1 0.00414834 0.00463546 0.00489191
2 2 0.0034928 0.00492073 0.00388068
3 3 2.00634 2.00588 2.02568
4 4 2.00778 2.00661 2.02626
5 5 2.00269 2.00426 0.00585206
6 6 2.00171 2.00377 0.00579429
7 5 2.00147 0.00618826 2.02471
8 6 2.00058 0.00663853 2.02475
9 5 0.00688031 2.00545 2.02372
10 6 0.00786842 2.00549 2.02327
ITEM: TIMESTEP
1900
ITEM: NUMBER OF ATOMS
10
ITEM: BOX BOUNDS pp pp pp
0.0000000000000000e+00 4.0000000000000000e+00
0.0000000000000000e+00 4.0000000000000000e+00
0.0000000000000000e+00 4.0400000000000000e+00
ITEM: ATOMS id type x y z
1 1 0.00411555 0.00464463 0.00491465
2 2 0.00310079 0.00477452 0.00586413
3 3 2.00651 2.00595 2.02576
4 4 2.00764 2.00595 2.02661
5 5 2.00234 2.00415 0.00601875
6 6 2.00176 2.00426 0.00592896
7 5 2.001 0.00629677 2.02461
8 6 2.00046 0.00607435 2.02372
9 5 0.00712675 2.00547 2.02354
10 6 0.00725371 2.00512 2.02351
ITEM: TIMESTEP
2000
ITEM: NUMBER OF ATOMS
10
ITEM: BOX BOUNDS pp pp pp
0.0000000000000000e+00 4.0000000000000000e+00
0.0000000000000000e+00 4.0000000000000000e+00
0.0000000000000000e+00 4.0400000000000000e+00
ITEM: ATOMS id type x y z
1 1 0.00408558 0.00465919 0.00494204
2 2 0.00305982 0.00346841 0.00440073
3 3 2.00671 2.00602 2.02586
4 4 2.00778 2.0067 2.02611
5 5 2.00195 2.00405 0.0061838
6 6 2.00219 2.00381 0.00656322
7 5 2.00048 0.00639939 2.02449
8 6 1.99963 0.00642815 2.0252
9 5 0.00739796 2.00548 2.02335
10 6 0.00752465 2.00542 2.02266
ITEM: TIMESTEP
2100
ITEM: NUMBER OF ATOMS
10
ITEM: BOX BOUNDS pp pp pp
0.0000000000000000e+00 4.0000000000000000e+00
0.0000000000000000e+00 4.0000000000000000e+00
0.0000000000000000e+00 4.0400000000000000e+00
ITEM: ATOMS id type x y z
1 1 0.00405467 0.00466895 0.00497654
2 2 0.00340174 0.00589466 0.00415596
3 3 2.00695 2.0061 2.02597
4 4 2.00851 2.00638 2.02637
5 5 2.00155 2.00395 0.0063212
6 6 2.00042 2.00311 0.00686202
7 5 1.99992 0.0064877 2.02437
8 6 1.99919 0.00649445 2.02352
9 5 0.00769331 2.00548 2.02311
10 6 0.00856004 2.00508 2.02309
ITEM: TIMESTEP
2200
ITEM: NUMBER OF ATOMS
10
ITEM: BOX BOUNDS pp pp pp
0.0000000000000000e+00 4.0000000000000000e+00
0.0000000000000000e+00 4.0000000000000000e+00
0.0000000000000000e+00 4.0400000000000000e+00
ITEM: ATOMS id type x y z
1 1 0.00401992 0.00467767 0.00501226
2 2 0.00231195 0.00404081 0.00515499
3 3 2.00725 2.00619 2.02611
4 4 2.00883 2.00663 2.02681
5 5 2.00108 2.00385 0.00647361
6 6 2.00138 2.00407 0.00662015
7 5 1.99932 0.00659426 2.0242
8 6 1.99836 0.00691502 2.02397
9 5 0.00802256 2.00546 2.02284
10 6 0.00877638 2.0049 2.02222
ITEM: TIMESTEP
2300
ITEM: NUMBER OF ATOMS
10
ITEM: BOX BOUNDS pp pp pp
0.0000000000000000e+00 4.0000000000000000e+00
0.0000000000000000e+00 4.0000000000000000e+00
0.0000000000000000e+00 4.0400000000000000e+00
ITEM: ATOMS id type x y z
1 1 0.00397901 0.00468923 0.00505016
2 2 0.0036543 0.00409953 0.00364089
3 3 2.00758 2.00627 2.02625
4 4 2.00911 2.00638 2.02713
5 5 2.00056 2.00373 0.00666412
6 6 1.99927 2.00338 0.00643142
7 5 1.99868 0.00670841 2.02399
8 6 1.99788 0.00669205 2.02423
9 5 0.0083887 2.00543 2.02252
10 6 0.00912452 2.00523 2.02168
ITEM: TIMESTEP
2400
ITEM: NUMBER OF ATOMS
10
ITEM: BOX BOUNDS pp pp pp
0.0000000000000000e+00 4.0000000000000000e+00
0.0000000000000000e+00 4.0000000000000000e+00
0.0000000000000000e+00 4.0400000000000000e+00
ITEM: ATOMS id type x y z
1 1 0.0039273 0.00469545 0.00508632
2 2 0.00291537 0.00491303 0.00559238
3 3 2.00796 2.00636 2.02641
4 4 2.00912 2.00699 2.02781
5 5 1.99998 2.0036 0.00685844
6 6 1.99885 2.0034 0.00682386
7 5 1.99798 0.00681877 2.02375
8 6 1.99759 0.00696631 2.02292
9 5 0.00878672 2.00538 2.02216
10 6 0.00932805 2.00517 2.02221
ITEM: TIMESTEP
2500
ITEM: NUMBER OF ATOMS
10
ITEM: BOX BOUNDS pp pp pp
0.0000000000000000e+00 4.0000000000000000e+00
0.0000000000000000e+00 4.0000000000000000e+00
0.0000000000000000e+00 4.0400000000000000e+00
ITEM: ATOMS id type x y z
1 1 0.00386597 0.00470056 0.00511893
2 2 0.00268249 0.00425619 0.00413351
3 3 2.0084 2.00647 2.0266
4 4 2.01057 2.00693 2.02684
5 5 1.99934 2.00343 0.00705297
6 6 1.99887 2.00364 0.00718384
7 5 1.9972 0.00694554 2.02348
8 6 1.99557 0.00677274 2.0236
9 5 0.00918601 2.00531 2.02178
10 6 0.00998304 2.00495 2.02147
ITEM: TIMESTEP
2600
ITEM: NUMBER OF ATOMS
10
ITEM: BOX BOUNDS pp pp pp
0.0000000000000000e+00 4.0000000000000000e+00
0.0000000000000000e+00 4.0000000000000000e+00
0.0000000000000000e+00 4.0400000000000000e+00
ITEM: ATOMS id type x y z
1 1 0.00379703 0.00470202 0.00513396
2 2 0.00229705 0.00520265 0.00526389
3 3 2.00891 2.00659 2.02681
4 4 2.01089 2.0073 2.02794
5 5 1.99863 2.00324 0.00725109
6 6 1.99836 2.00236 0.00797117
7 5 1.99635 0.00707732 2.02318
8 6 1.99544 0.0070487 2.02231
9 5 0.00961718 2.00523 2.02138
10 6 0.010527 2.00495 2.02041
ITEM: TIMESTEP
2700
ITEM: NUMBER OF ATOMS
10
ITEM: BOX BOUNDS pp pp pp
0.0000000000000000e+00 4.0000000000000000e+00
0.0000000000000000e+00 4.0000000000000000e+00
0.0000000000000000e+00 4.0400000000000000e+00
ITEM: ATOMS id type x y z
1 1 0.00371207 0.00470373 0.00513456
2 2 0.00355726 0.00383901 0.00377039
3 3 2.00949 2.00673 2.02706
4 4 2.01184 2.00733 2.02761
5 5 1.99785 2.003 0.00744402
6 6 1.99595 2.00295 0.00762673
7 5 1.99543 0.00721644 2.02285
8 6 1.99471 0.00729024 2.02244
9 5 0.0100761 2.00514 2.02095
10 6 0.0111719 2.00446 2.0207
ITEM: TIMESTEP
2800
ITEM: NUMBER OF ATOMS
10
ITEM: BOX BOUNDS pp pp pp
0.0000000000000000e+00 4.0000000000000000e+00
0.0000000000000000e+00 4.0000000000000000e+00
0.0000000000000000e+00 4.0400000000000000e+00
ITEM: ATOMS id type x y z
1 1 0.00361249 0.00470749 0.00512137
2 2 0.00140595 0.00487378 0.0051927
3 3 2.01015 2.00689 2.02734
4 4 2.01168 2.00722 2.02884
5 5 1.99696 2.00275 0.00764501
6 6 1.99602 2.00216 0.00819793
7 5 1.9944 0.00735067 2.02249
8 6 1.99285 0.00735194 2.02272
9 5 0.0105956 2.00505 2.02047
10 6 0.0110224 2.00526 2.01966
ITEM: TIMESTEP
2900
ITEM: NUMBER OF ATOMS
10
ITEM: BOX BOUNDS pp pp pp
0.0000000000000000e+00 4.0000000000000000e+00
0.0000000000000000e+00 4.0000000000000000e+00
0.0000000000000000e+00 4.0400000000000000e+00
ITEM: ATOMS id type x y z
1 1 0.00349647 0.00470992 0.00510373
2 2 0.00199417 0.00377984 0.00370238
3 3 2.01091 2.00708 2.02764
4 4 2.01308 2.00765 2.02837
5 5 1.99597 2.00249 0.00786497
6 6 1.99559 2.00188 0.00787841
7 5 1.99326 0.0074806 2.02212
8 6 1.9917 0.0077916 2.02102
9 5 0.0111883 2.00493 2.01996
10 6 0.0120359 2.00427 2.01959
ITEM: TIMESTEP
3000
ITEM: NUMBER OF ATOMS
10
ITEM: BOX BOUNDS pp pp pp
0.0000000000000000e+00 4.0000000000000000e+00
0.0000000000000000e+00 4.0000000000000000e+00
0.0000000000000000e+00 4.0400000000000000e+00
ITEM: ATOMS id type x y z
1 1 0.00336539 0.0047168 0.00508148
2 2 0.00163568 0.00493904 0.00526008
3 3 2.01176 2.00728 2.02798
4 4 2.01482 2.0077 2.02888
5 5 1.99489 2.0022 0.00809811
6 6 1.99321 2.00288 0.00837792
7 5 1.99196 0.00759096 2.02171
8 6 1.9908 0.00794263 2.02118
9 5 0.0118578 2.00475 2.0194
10 6 0.0133467 2.00455 2.01889
ITEM: TIMESTEP
3100
ITEM: NUMBER OF ATOMS
10
ITEM: BOX BOUNDS pp pp pp
0.0000000000000000e+00 4.0000000000000000e+00
0.0000000000000000e+00 4.0000000000000000e+00
0.0000000000000000e+00 4.0400000000000000e+00
ITEM: ATOMS id type x y z
1 1 0.00322453 0.00473011 0.00504947
2 2 0.0023743 0.00458049 0.00362838
3 3 2.01272 2.0075 2.02837
4 4 2.01543 2.0084 2.03022
5 5 1.99369 2.00186 0.00837941
6 6 1.99198 2.00062 0.00937592
7 5 1.9905 0.0076989 2.02127
8 6 1.98901 0.00814721 2.02128
9 5 0.0126411 2.00454 2.0188
10 6 0.0137051 2.0043 2.01746
ITEM: TIMESTEP
3200
ITEM: NUMBER OF ATOMS
10
ITEM: BOX BOUNDS pp pp pp
0.0000000000000000e+00 4.0000000000000000e+00
0.0000000000000000e+00 4.0000000000000000e+00
0.0000000000000000e+00 4.0400000000000000e+00
ITEM: ATOMS id type x y z
1 1 0.00306958 0.00474033 0.00500865
2 2 0.00109994 0.00413224 0.00471661
3 3 2.01379 2.00776 2.0288
4 4 2.01665 2.00815 2.02959
5 5 1.99237 2.00147 0.00874028
6 6 1.99114 2.00101 0.00891316
7 5 1.98888 0.00784418 2.02077
8 6 1.98668 0.00769871 2.01989
9 5 0.0135483 2.0043 2.01811
10 6 0.0146277 2.0038 2.01832
ITEM: TIMESTEP
3300
ITEM: NUMBER OF ATOMS
10
ITEM: BOX BOUNDS pp pp pp
0.0000000000000000e+00 4.0000000000000000e+00
0.0000000000000000e+00 4.0000000000000000e+00
0.0000000000000000e+00 4.0400000000000000e+00
ITEM: ATOMS id type x y z
1 1 0.00289718 0.00475525 0.00495555
2 2 0.000617289 0.00495532 0.00371364
3 3 2.01497 2.00803 2.02927
4 4 2.01809 2.00888 2.03034
5 5 1.9909 2.00102 0.00913859
6 6 1.98944 2.00151 0.00950898
7 5 1.98708 0.00800661 2.02019
8 6 1.98536 0.00821137 2.01903
9 5 0.0145779 2.00401 2.01735
10 6 0.0158352 2.00379 2.0161
ITEM: TIMESTEP
3400
ITEM: NUMBER OF ATOMS
10
ITEM: BOX BOUNDS pp pp pp
0.0000000000000000e+00 4.0000000000000000e+00
0.0000000000000000e+00 4.0000000000000000e+00
0.0000000000000000e+00 4.0400000000000000e+00
ITEM: ATOMS id type x y z
1 1 0.00269949 0.00476997 0.00489216
2 2 0.000484272 0.00343753 0.0040878
3 3 2.01629 2.00833 2.0298
4 4 2.02018 2.00969 2.03175
5 5 1.98924 2.00055 0.00961538
6 6 1.98715 1.99916 0.0107715
7 5 1.98507 0.00818462 2.01951
8 6 1.98323 0.00871433 2.01949
9 5 0.0157879 2.0037 2.0165
10 6 0.0175142 2.00326 2.01504
ITEM: TIMESTEP
3500
ITEM: NUMBER OF ATOMS
10
ITEM: BOX BOUNDS pp pp pp
0.0000000000000000e+00 4.0000000000000000e+00
0.0000000000000000e+00 4.0000000000000000e+00
0.0000000000000000e+00 4.0400000000000000e+00
ITEM: ATOMS id type x y z
1 1 0.00247905 0.00477761 0.0048229
2 2 0.000457549 0.00548262 0.00402838
3 3 2.01774 2.00866 2.03037
4 4 2.022 2.00918 2.03196
5 5 1.98739 2.00001 0.0101736
6 6 1.9855 1.99979 0.0109054
7 5 1.98285 0.00840474 2.01878
8 6 1.98024 0.00821663 2.01795
9 5 0.0171986 2.00334 2.01556
10 6 0.0190108 2.00313 2.01584
ITEM: TIMESTEP
3600
ITEM: NUMBER OF ATOMS
10
ITEM: BOX BOUNDS pp pp pp
0.0000000000000000e+00 4.0000000000000000e+00
0.0000000000000000e+00 4.0000000000000000e+00
0.0000000000000000e+00 4.0400000000000000e+00
ITEM: ATOMS id type x y z
1 1 0.00222749 0.0047819 0.00474072
2 2 0.000469495 0.00400747 0.00355236
3 3 2.01934 2.00904 2.03099
4 4 2.0234 2.0099 2.03274
5 5 1.98534 1.99941 0.0108037
6 6 1.9834 1.99929 0.0112211
7 5 1.98037 0.00868924 2.01796
8 6 1.97776 0.00881164 2.01617
9 5 0.0187973 2.00293 2.01453
10 6 0.0200033 2.00206 2.01298
ITEM: TIMESTEP
3700
ITEM: NUMBER OF ATOMS
10
ITEM: BOX BOUNDS pp pp pp
0.0000000000000000e+00 4.0000000000000000e+00
0.0000000000000000e+00 4.0000000000000000e+00
0.0000000000000000e+00 4.0400000000000000e+00
ITEM: ATOMS id type x y z
1 1 0.00194841 0.00478057 0.00464268
2 2 -0.000847983 0.00373853 0.00412267
3 3 2.02112 2.00944 2.03169
4 4 2.02603 2.01101 2.03383
5 5 1.98308 1.99872 0.0115397
6 6 1.98025 1.99769 0.0121263
7 5 1.97761 0.00903478 2.01701
8 6 1.97478 0.00983668 2.01665
9 5 0.0206 2.00246 2.01337
10 6 0.0222903 2.00203 2.01156
ITEM: TIMESTEP
3800
ITEM: NUMBER OF ATOMS
10
ITEM: BOX BOUNDS pp pp pp
0.0000000000000000e+00 4.0000000000000000e+00
0.0000000000000000e+00 4.0000000000000000e+00
0.0000000000000000e+00 4.0400000000000000e+00
ITEM: ATOMS id type x y z
1 1 0.00163722 0.00477223 0.00453598
2 2 -0.00160825 0.00508512 0.00277466
3 3 2.0231 2.00987 2.03249
4 4 2.02911 2.01077 2.03514
5 5 1.98058 1.99795 0.0123596
6 6 1.97802 1.99755 0.0135358
7 5 1.97456 0.0094244 2.01594
8 6 1.97155 0.00982283 2.01501
9 5 0.0226338 2.00192 2.0121
10 6 0.0251314 2.00178 2.0117
ITEM: TIMESTEP
3900
ITEM: NUMBER OF ATOMS
10
ITEM: BOX BOUNDS pp pp pp
0.0000000000000000e+00 4.0000000000000000e+00
0.0000000000000000e+00 4.0000000000000000e+00
0.0000000000000000e+00 4.0400000000000000e+00
ITEM: ATOMS id type x y z
1 1 0.00128639 0.00476358 0.00441397
2 2 -0.00148411 0.00341852 0.00275147
3 3 2.0253 2.01035 2.03337
4 4 2.03138 2.01113 2.03621
5 5 1.97781 1.99711 0.0133105
6 6 1.97535 1.99646 0.0143091
7 5 1.97116 0.00986944 2.01475
8 6 1.96752 0.0102709 2.0128
9 5 0.0249292 2.00134 2.0107
10 6 0.0271179 1.99994 2.00937
ITEM: TIMESTEP
4000
ITEM: NUMBER OF ATOMS
10
ITEM: BOX BOUNDS pp pp pp
0.0000000000000000e+00 4.0000000000000000e+00
0.0000000000000000e+00 4.0000000000000000e+00
0.0000000000000000e+00 4.0400000000000000e+00
ITEM: ATOMS id type x y z
1 1 0.000892092 0.00474521 0.00427781
2 2 -0.00219634 0.00391693 0.00378801
3 3 2.02777 2.01087 2.03438
4 4 2.03423 2.01229 2.03692
5 5 1.97474 1.99619 0.0143919
6 6 1.97084 1.99518 0.0149193
7 5 1.96738 0.0103814 2.01338
8 6 1.96341 0.011577 2.01241
9 5 0.0275163 2.00069 2.00916
10 6 0.029711 2 2.00675
ITEM: TIMESTEP
4100
ITEM: NUMBER OF ATOMS
10
ITEM: BOX BOUNDS pp pp pp
0.0000000000000000e+00 4.0000000000000000e+00
0.0000000000000000e+00 4.0000000000000000e+00
0.0000000000000000e+00 4.0400000000000000e+00
ITEM: ATOMS id type x y z
1 1 0.000450034 0.00470961 0.00412356
2 2 3.99711 0.00491678 0.00245774
3 3 2.03052 2.01145 2.03553
4 4 2.03799 2.01283 2.0389
5 5 1.97132 1.99522 0.0155858
6 6 1.96739 1.99466 0.0168167
7 5 1.9632 0.0109585 2.01184
8 6 1.95874 0.0122499 2.01015
9 5 0.0304098 1.99998 2.00744
10 6 0.033315 1.99973 2.00577
ITEM: TIMESTEP
4200
ITEM: NUMBER OF ATOMS
10
ITEM: BOX BOUNDS pp pp pp
0.0000000000000000e+00 4.0000000000000000e+00
0.0000000000000000e+00 4.0000000000000000e+00
0.0000000000000000e+00 4.0400000000000000e+00
ITEM: ATOMS id type x y z
1 1 -4.11721e-05 0.00466334 0.00395556
2 2 3.99592 0.00307976 0.00164726
3 3 2.0336 2.0121 2.03682
4 4 2.04201 2.01321 2.04095
5 5 1.96753 1.99415 0.0169272
6 6 1.96401 1.99309 0.0187289
7 5 1.95854 0.011651 2.01011
8 6 1.95365 0.0125597 2.00798
9 5 0.0336455 1.99923 2.00551
10 6 0.0371597 1.99739 2.00416
ITEM: TIMESTEP
4300
ITEM: NUMBER OF ATOMS
10
ITEM: BOX BOUNDS pp pp pp
0.0000000000000000e+00 4.0000000000000000e+00
0.0000000000000000e+00 4.0000000000000000e+00
0.0000000000000000e+00 4.0400000000000000e+00
ITEM: ATOMS id type x y z
1 1 -0.00058805 0.00460943 0.00376526
2 2 3.99446 0.00336067 0.00235051
3 3 2.03704 2.01281 2.03827
4 4 2.04608 2.01428 2.04202
5 5 1.96329 1.99298 0.0184248
6 6 1.9586 1.99166 0.0196697
7 5 1.95336 0.0124262 2.00816
8 6 1.94797 0.0134891 2.00666
9 5 0.0372472 1.99839 2.00337
10 6 0.0408738 1.99751 2.00069
ITEM: TIMESTEP
4400
ITEM: NUMBER OF ATOMS
10
ITEM: BOX BOUNDS pp pp pp
0.0000000000000000e+00 4.0000000000000000e+00
0.0000000000000000e+00 4.0000000000000000e+00
0.0000000000000000e+00 4.0400000000000000e+00
ITEM: ATOMS id type x y z
1 1 -0.00119317 0.00455139 0.00354184
2 2 3.99459 0.00454333 0.00172588
3 3 2.04088 2.01361 2.0399
4 4 2.05091 2.01587 2.04407
5 5 1.95858 1.9917 0.0200961
6 6 1.95311 1.99077 0.0215382
7 5 1.9476 0.0132754 2.006
8 6 1.94161 0.0147806 2.00347
9 5 0.0412498 1.99744 2.00099
10 6 0.045053 1.99693 1.998
ITEM: TIMESTEP
4500
ITEM: NUMBER OF ATOMS
10
ITEM: BOX BOUNDS pp pp pp
0.0000000000000000e+00 4.0000000000000000e+00
0.0000000000000000e+00 4.0000000000000000e+00
0.0000000000000000e+00 4.0400000000000000e+00
ITEM: ATOMS id type x y z
1 1 -0.00186237 0.00448423 0.0032866
2 2 3.99372 0.00284081 0.000640901
3 3 2.04517 2.0145 2.04173
4 4 2.05663 2.01673 2.04718
5 5 1.95332 1.99031 0.0219811
6 6 1.94785 1.989 0.0242699
7 5 1.94118 0.0142416 2.00357
8 6 1.93428 0.0153103 2.00037
9 5 0.0456964 1.99636 1.99834
10 6 0.0502379 1.99411 1.99617
ITEM: TIMESTEP
4600
ITEM: NUMBER OF ATOMS
10
ITEM: BOX BOUNDS pp pp pp
0.0000000000000000e+00 4.0000000000000000e+00
0.0000000000000000e+00 4.0000000000000000e+00
0.0000000000000000e+00 4.0400000000000000e+00
ITEM: ATOMS id type x y z
1 1 -0.00259487 0.00439553 0.00300235
2 2 3.99088 0.00260002 0.000459815
3 3 2.04997 2.01547 2.04378
4 4 2.06256 2.01766 2.04954
5 5 1.94746 1.98879 0.0240639
6 6 1.94125 1.98713 0.0263422
7 5 1.93403 0.015339 2.00084
8 6 1.92658 0.0159873 1.99874
9 5 0.0506304 1.99513 1.9954
10 6 0.055685 1.99359 1.99235
ITEM: TIMESTEP
4700
ITEM: NUMBER OF ATOMS
10
ITEM: BOX BOUNDS pp pp pp
0.0000000000000000e+00 4.0000000000000000e+00
0.0000000000000000e+00 4.0000000000000000e+00
0.0000000000000000e+00 4.0400000000000000e+00
ITEM: ATOMS id type x y z
1 1 -0.00340874 0.00428823 0.0026859
2 2 3.98966 0.00380899 -3.93721e-05
3 3 2.05532 2.01657 2.04606
4 4 2.06906 2.02004 2.05221
5 5 1.94092 1.98709 0.0263701
6 6 1.93379 1.98578 0.0283659
7 5 1.92606 0.0165726 1.99778
8 6 1.91822 0.0178963 1.99458
9 5 0.0561137 1.99376 1.99213
10 6 0.0615179 1.99297 1.98788
ITEM: TIMESTEP
4800
ITEM: NUMBER OF ATOMS
10
ITEM: BOX BOUNDS pp pp pp
0.0000000000000000e+00 4.0000000000000000e+00
0.0000000000000000e+00 4.0000000000000000e+00
0.0000000000000000e+00 4.0400000000000000e+00
ITEM: ATOMS id type x y z
1 1 -0.00431221 0.00417302 0.00233822
2 2 3.98968 0.00242821 -0.000481084
3 3 2.06129 2.0178 2.04864
4 4 2.07692 2.02183 2.05574
5 5 1.93362 1.98521 0.028938
6 6 1.92592 1.98351 0.0313833
7 5 1.9172 0.0179472 1.99437
8 6 1.90782 0.0193741 1.99003
9 5 0.0622047 1.99226 1.98847
10 6 0.0682127 1.98962 1.98483
ITEM: TIMESTEP
4900
ITEM: NUMBER OF ATOMS
10
ITEM: BOX BOUNDS pp pp pp
0.0000000000000000e+00 4.0000000000000000e+00
0.0000000000000000e+00 4.0000000000000000e+00
0.0000000000000000e+00 4.0400000000000000e+00
ITEM: ATOMS id type x y z
1 1 -0.0053211 0.00403011 0.00194921
2 2 3.98707 0.00156352 -0.00152459
3 3 2.06794 2.01918 2.05153
4 4 2.08521 2.02251 2.0597
5 5 1.92548 1.9831 0.0317992
6 6 1.91692 1.98102 0.0348435
7 5 1.90734 0.0194887 1.99057
8 6 1.89682 0.0200828 1.98702
9 5 0.0689398 1.99053 1.98438
10 6 0.0754282 1.98834 1.98031
ITEM: TIMESTEP
5000
ITEM: NUMBER OF ATOMS
10
ITEM: BOX BOUNDS pp pp pp
0.0000000000000000e+00 4.0000000000000000e+00
0.0000000000000000e+00 4.0000000000000000e+00
0.0000000000000000e+00 4.0400000000000000e+00
ITEM: ATOMS id type x y z
1 1 -0.00643737 0.00385495 0.00151846
2 2 3.98398 0.00254197 -0.00278699
3 3 2.07534 2.02072 2.05477
4 4 2.09426 2.0251 2.06365
5 5 1.9164 1.98077 0.0349961
6 6 1.9069 1.97886 0.0383048
7 5 1.8964 0.0211731 1.98635
8 6 1.88601 0.0224804 1.98236
9 5 0.076429 1.98855 1.97981
10 6 0.0834164 1.98703 1.9744
ITEM: TIMESTEP
5100
ITEM: NUMBER OF ATOMS
10
ITEM: BOX BOUNDS pp pp pp
0.0000000000000000e+00 4.0000000000000000e+00
0.0000000000000000e+00 4.0000000000000000e+00
0.0000000000000000e+00 4.0400000000000000e+00
ITEM: ATOMS id type x y z
1 1 3.99232 0.00364794 0.00104454
2 2 3.98276 0.00167885 4.03699
3 3 2.08358 2.02243 2.05838
4 4 2.10499 2.02813 2.0679
5 5 1.90629 1.97821 0.0385894
6 6 1.89607 1.9759 0.0419685
7 5 1.88426 0.0230225 1.98167
8 6 1.87236 0.0252048 1.97621
9 5 0.0847087 1.98636 1.97471
10 6 0.09277 1.98303 1.9693
ITEM: TIMESTEP
5200
ITEM: NUMBER OF ATOMS
10
ITEM: BOX BOUNDS pp pp pp
0.0000000000000000e+00 4.0000000000000000e+00
0.0000000000000000e+00 4.0000000000000000e+00
0.0000000000000000e+00 4.0400000000000000e+00
ITEM: ATOMS id type x y z
1 1 3.99093 0.00339878 0.000506706
2 2 3.98104 0.000384508 4.03622
3 3 2.09274 2.02434 2.0624
4 4 2.11618 2.02901 2.07313
5 5 1.89505 1.97538 0.0425983
6 6 1.88364 1.97284 0.0466276
7 5 1.87078 0.0250611 1.97644
8 6 1.85695 0.0264667 1.97112
9 5 0.0938876 1.98387 1.96901
10 6 0.102616 1.98085 1.96317
ITEM: TIMESTEP
5300
ITEM: NUMBER OF ATOMS
10
ITEM: BOX BOUNDS pp pp pp
0.0000000000000000e+00 4.0000000000000000e+00
0.0000000000000000e+00 4.0000000000000000e+00
0.0000000000000000e+00 4.0400000000000000e+00
ITEM: ATOMS id type x y z
1 1 3.9894 0.00310786 -0.000102278
2 2 3.97718 0.000759724 4.03405
3 3 2.10291 2.02647 2.0669
4 4 2.12796 2.03184 2.07922
5 5 1.88258 1.97226 0.0470859
6 6 1.8697 1.96948 0.0521076
7 5 1.85583 0.0272933 1.97065
8 6 1.84174 0.02908 1.96551
9 5 0.104069 1.98108 1.96263
10 6 0.113221 1.97847 1.95542
ITEM: TIMESTEP
5400
ITEM: NUMBER OF ATOMS
10
ITEM: BOX BOUNDS pp pp pp
0.0000000000000000e+00 4.0000000000000000e+00
0.0000000000000000e+00 4.0000000000000000e+00
0.0000000000000000e+00 4.0400000000000000e+00
ITEM: ATOMS id type x y z
1 1 3.98769 0.00277954 -0.000781516
2 2 3.97391 0.000122288 4.03291
3 3 2.11418 2.02884 2.07191
4 4 2.14195 2.03633 2.08507
5 5 1.86872 1.96887 0.0520888
6 6 1.85528 1.96572 0.057331
7 5 1.83927 0.0297496 1.96424
8 6 1.82434 0.0329737 1.95778
9 5 0.11535 1.97795 1.95551
10 6 0.126017 1.97365 1.94803
ITEM: TIMESTEP
5500
ITEM: NUMBER OF ATOMS
10
ITEM: BOX BOUNDS pp pp pp
0.0000000000000000e+00 4.0000000000000000e+00
0.0000000000000000e+00 4.0000000000000000e+00
0.0000000000000000e+00 4.0400000000000000e+00
ITEM: ATOMS id type x y z
1 1 3.98579 0.00241526 -0.00154278
2 2 3.9716 -0.00134429 4.03244
3 3 2.12667 2.03148 2.07748
4 4 2.15727 2.0383 2.09169
5 5 1.85334 1.96517 0.0576562
6 6 1.8389 1.96228 0.0631097
7 5 1.82099 0.0324638 1.95715
8 6 1.80389 0.0350054 1.95019
9 5 0.127858 1.97442 1.94753
10 6 0.139973 1.97029 1.93907