LAMMPS data file for BaTiO3 core-shell 4x4x4

80 atoms
40 bonds

6 atom types
1 bond types

0.0 8.000 xlo xhi
0.0 8.000 ylo yhi
0.0 8.000 zlo zhi

Masses

1 137.327
2 0.0001
3 47.867
4 0.0001
5 15.999
6 0.0001

Atoms

1 1 1 1.5000 0.0000 0.0000 0.0000
2 2 2 0.5000 0.0100 0.0000 0.0000
3 3 3 2.0000 2.0000 2.0000 2.0000
4 4 4 2.0000 2.0100 2.0000 2.0000
5 5 5 -1.0000 2.0000 0.0000 0.0000
6 6 6 -1.0000 2.0100 0.0000 0.0000
7 5 5 -1.0000 0.0000 2.0000 0.0000
8 6 6 -1.0000 0.0100 2.0000 0.0000
9 5 5 -1.0000 0.0000 0.0000 2.0000
10 6 6 -1.0000 0.0100 0.0000 2.0000
11 1 1 1.5000 0.0000 0.0000 4.0000
12 2 2 0.5000 0.0100 0.0000 4.0000
13 3 3 2.0000 2.0000 2.0000 6.0000
14 4 4 2.0000 2.0100 2.0000 6.0000
15 5 5 -1.0000 2.0000 0.0000 4.0000
16 6 6 -1.0000 2.0100 0.0000 4.0000
17 5 5 -1.0000 0.0000 2.0000 4.0000
18 6 6 -1.0000 0.0100 2.0000 4.0000
19 5 5 -1.0000 0.0000 0.0000 6.0000
20 6 6 -1.0000 0.0100 0.0000 6.0000
21 1 1 1.5000 0.0000 4.0000 0.0000
22 2 2 0.5000 0.0100 4.0000 0.0000
23 3 3 2.0000 2.0000 6.0000 2.0000
24 4 4 2.0000 2.0100 6.0000 2.0000
25 5 5 -1.0000 2.0000 4.0000 0.0000
26 6 6 -1.0000 2.0100 4.0000 0.0000
27 5 5 -1.0000 0.0000 6.0000 0.0000
28 6 6 -1.0000 0.0100 6.0000 0.0000
29 5 5 -1.0000 0.0000 4.0000 2.0000
30 6 6 -1.0000 0.0100 4.0000 2.0000
31 1 1 1.5000 0.0000 4.0000 4.0000
32 2 2 0.5000 0.0100 4.0000 4.0000
33 3 3 2.0000 2.0000 6.0000 6.0000
34 4 4 2.0000 2.0100 6.0000 6.0000
35 5 5 -1.0000 2.0000 4.0000 4.0000
36 6 6 -1.0000 2.0100 4.0000 4.0000
37 5 5 -1.0000 0.0000 6.0000 4.0000
38 6 6 -1.0000 0.0100 6.0000 4.0000
39 5 5 -1.0000 0.0000 4.0000 6.0000
40 6 6 -1.0000 0.0100 4.0000 6.0000
41 1 1 1.5000 4.0000 0.0000 0.0000
42 2 2 0.5000 4.0100 0.0000 0.0000
43 3 3 2.0000 6.0000 2.0000 2.0000
44 4 4 2.0000 6.0100 2.0000 2.0000
45 5 5 -1.0000 6.0000 0.0000 0.0000
46 6 6 -1.0000 6.0100 0.0000 0.0000
47 5 5 -1.0000 4.0000 2.0000 0.0000
48 6 6 -1.0000 4.0100 2.0000 0.0000
49 5 5 -1.0000 4.0000 0.0000 2.0000
50 6 6 -1.0000 4.0100 0.0000 2.0000
51 1 1 1.5000 4.0000 0.0000 4.0000
52 2 2 0.5000 4.0100 0.0000 4.0000
53 3 3 2.0000 6.0000 2.0000 6.0000
54 4 4 2.0000 6.0100 2.0000 6.0000
55 5 5 -1.0000 6.0000 0.0000 4.0000
56 6 6 -1.0000 6.0100 0.0000 4.0000
57 5 5 -1.0000 4.0000 2.0000 4.0000
58 6 6 -1.0000 4.0100 2.0000 4.0000
59 5 5 -1.0000 4.0000 0.0000 6.0000
60 6 6 -1.0000 4.0100 0.0000 6.0000
61 1 1 1.5000 4.0000 4.0000 0.0000
62 2 2 0.5000 4.0100 4.0000 0.0000
63 3 3 2.0000 6.0000 6.0000 2.0000
64 4 4 2.0000 6.0100 6.0000 2.0000
65 5 5 -1.0000 6.0000 4.0000 0.0000
66 6 6 -1.0000 6.0100 4.0000 0.0000
67 5 5 -1.0000 4.0000 6.0000 0.0000
68 6 6 -1.0000 4.0100 6.0000 0.0000
69 5 5 -1.0000 4.0000 4.0000 2.0000
70 6 6 -1.0000 4.0100 4.0000 2.0000
71 1 1 1.5000 4.0000 4.0000 4.0000
72 2 2 0.5000 4.0100 4.0000 4.0000
73 3 3 2.0000 6.0000 6.0000 6.0000
74 4 4 2.0000 6.0100 6.0000 6.0000
75 5 5 -1.0000 6.0000 4.0000 4.0000
76 6 6 -1.0000 6.0100 4.0000 4.0000
77 5 5 -1.0000 4.0000 6.0000 4.0000
78 6 6 -1.0000 4.0100 6.0000 4.0000
79 5 5 -1.0000 4.0000 4.0000 6.0000
80 6 6 -1.0000 4.0100 4.0000 6.0000

Bonds

1 1 1 2
2 1 3 4
3 1 5 6
4 1 7 8
5 1 9 10
6 1 11 12
7 1 13 14
8 1 15 16
9 1 17 18
10 1 19 20
11 1 21 22
12 1 23 24
13 1 25 26
14 1 27 28
15 1 29 30
16 1 31 32
17 1 33 34
18 1 35 36
19 1 37 38
20 1 39 40
21 1 41 42
22 1 43 44
23 1 45 46
24 1 47 48
25 1 49 50
26 1 51 52
27 1 53 54
28 1 55 56
29 1 57 58
30 1 59 60
31 1 61 62
32 1 63 64
33 1 65 66
34 1 67 68
35 1 69 70
36 1 71 72
37 1 73 74
38 1 75 76
39 1 77 78
40 1 79 80
