LAMMPS data file for BaTiO3 core-shell model

5120 atoms
2560 bonds
6 atom types
3 bond types

0.0 32.0000 xlo xhi
0.0 32.0000 ylo yhi
0.0 32.0000 zlo zhi

Masses

1 137.33000  # Ba_core
2 0.00001  # Ba_shell
3 47.86700  # Ti_core
4 0.00001  # Ti_shell
5 15.99900  # O_core
6 0.00001  # O_shell

Atoms # full

1 1 1 2.0000 0.000000 0.000000 0.000000
2 1 2 -2.0000 0.010000 0.010000 0.010000
3 2 3 4.0000 2.000000 2.000000 2.000000
4 2 4 -4.0000 2.010000 2.010000 2.010000
5 3 5 -2.6667 2.000000 2.000000 0.000000
6 3 6 2.6667 2.010000 2.010000 0.010000
7 4 5 -2.6667 0.000000 2.000000 2.000000
8 4 6 2.6667 0.010000 2.010000 2.010000
9 5 5 -2.6667 2.000000 0.000000 2.000000
10 5 6 2.6667 2.010000 0.010000 2.010000
11 6 1 2.0000 0.000000 0.000000 4.000000
12 6 2 -2.0000 0.010000 0.010000 4.010000
13 7 3 4.0000 2.000000 2.000000 6.000000
14 7 4 -4.0000 2.010000 2.010000 6.010000
15 8 5 -2.6667 2.000000 2.000000 4.000000
16 8 6 2.6667 2.010000 2.010000 4.010000
17 9 5 -2.6667 0.000000 2.000000 6.000000
18 9 6 2.6667 0.010000 2.010000 6.010000
19 10 5 -2.6667 2.000000 0.000000 6.000000
20 10 6 2.6667 2.010000 0.010000 6.010000
21 11 1 2.0000 0.000000 0.000000 8.000000
22 11 2 -2.0000 0.010000 0.010000 8.010000
23 12 3 4.0000 2.000000 2.000000 10.000000
24 12 4 -4.0000 2.010000 2.010000 10.010000
25 13 5 -2.6667 2.000000 2.000000 8.000000
26 13 6 2.6667 2.010000 2.010000 8.010000
27 14 5 -2.6667 0.000000 2.000000 10.000000
28 14 6 2.6667 0.010000 2.010000 10.010000
29 15 5 -2.6667 2.000000 0.000000 10.000000
30 15 6 2.6667 2.010000 0.010000 10.010000
31 16 1 2.0000 0.000000 0.000000 12.000000
32 16 2 -2.0000 0.010000 0.010000 12.010000
33 17 3 4.0000 2.000000 2.000000 14.000000
34 17 4 -4.0000 2.010000 2.010000 14.010000
35 18 5 -2.6667 2.000000 2.000000 12.000000
36 18 6 2.6667 2.010000 2.010000 12.010000
37 19 5 -2.6667 0.000000 2.000000 14.000000
38 19 6 2.6667 0.010000 2.010000 14.010000
39 20 5 -2.6667 2.000000 0.000000 14.000000
40 20 6 2.6667 2.010000 0.010000 14.010000
41 21 1 2.0000 0.000000 0.000000 16.000000
42 21 2 -2.0000 0.010000 0.010000 16.010000
43 22 3 4.0000 2.000000 2.000000 18.000000
44 22 4 -4.0000 2.010000 2.010000 18.010000
45 23 5 -2.6667 2.000000 2.000000 16.000000
46 23 6 2.6667 2.010000 2.010000 16.010000
47 24 5 -2.6667 0.000000 2.000000 18.000000
48 24 6 2.6667 0.010000 2.010000 18.010000
49 25 5 -2.6667 2.000000 0.000000 18.000000
50 25 6 2.6667 2.010000 0.010000 18.010000
51 26 1 2.0000 0.000000 0.000000 20.000000
52 26 2 -2.0000 0.010000 0.010000 20.010000
53 27 3 4.0000 2.000000 2.000000 22.000000
54 27 4 -4.0000 2.010000 2.010000 22.010000
55 28 5 -2.6667 2.000000 2.000000 20.000000
56 28 6 2.6667 2.010000 2.010000 20.010000
57 29 5 -2.6667 0.000000 2.000000 22.000000
58 29 6 2.6667 0.010000 2.010000 22.010000
59 30 5 -2.6667 2.000000 0.000000 22.000000
60 30 6 2.6667 2.010000 0.010000 22.010000
61 31 1 2.0000 0.000000 0.000000 24.000000
62 31 2 -2.0000 0.010000 0.010000 24.010000
63 32 3 4.0000 2.000000 2.000000 26.000000
64 32 4 -4.0000 2.010000 2.010000 26.010000
65 33 5 -2.6667 2.000000 2.000000 24.000000
66 33 6 2.6667 2.010000 2.010000 24.010000
67 34 5 -2.6667 0.000000 2.000000 26.000000
68 34 6 2.6667 0.010000 2.010000 26.010000
69 35 5 -2.6667 2.000000 0.000000 26.000000
70 35 6 2.6667 2.010000 0.010000 26.010000
71 36 1 2.0000 0.000000 0.000000 28.000000
72 36 2 -2.0000 0.010000 0.010000 28.010000
73 37 3 4.0000 2.000000 2.000000 30.000000
74 37 4 -4.0000 2.010000 2.010000 30.010000
75 38 5 -2.6667 2.000000 2.000000 28.000000
76 38 6 2.6667 2.010000 2.010000 28.010000
77 39 5 -2.6667 0.000000 2.000000 30.000000
78 39 6 2.6667 0.010000 2.010000 30.010000
79 40 5 -2.6667 2.000000 0.000000 30.000000
80 40 6 2.6667 2.010000 0.010000 30.010000
81 41 1 2.0000 0.000000 4.000000 0.000000
82 41 2 -2.0000 0.010000 4.010000 0.010000
83 42 3 4.0000 2.000000 6.000000 2.000000
84 42 4 -4.0000 2.010000 6.010000 2.010000
85 43 5 -2.6667 2.000000 6.000000 0.000000
86 43 6 2.6667 2.010000 6.010000 0.010000
87 44 5 -2.6667 0.000000 6.000000 2.000000
88 44 6 2.6667 0.010000 6.010000 2.010000
89 45 5 -2.6667 2.000000 4.000000 2.000000
90 45 6 2.6667 2.010000 4.010000 2.010000
91 46 1 2.0000 0.000000 4.000000 4.000000
92 46 2 -2.0000 0.010000 4.010000 4.010000
93 47 3 4.0000 2.000000 6.000000 6.000000
94 47 4 -4.0000 2.010000 6.010000 6.010000
95 48 5 -2.6667 2.000000 6.000000 4.000000
96 48 6 2.6667 2.010000 6.010000 4.010000
97 49 5 -2.6667 0.000000 6.000000 6.000000
98 49 6 2.6667 0.010000 6.010000 6.010000
99 50 5 -2.6667 2.000000 4.000000 6.000000
100 50 6 2.6667 2.010000 4.010000 6.010000
101 51 1 2.0000 0.000000 4.000000 8.000000
102 51 2 -2.0000 0.010000 4.010000 8.010000
103 52 3 4.0000 2.000000 6.000000 10.000000
104 52 4 -4.0000 2.010000 6.010000 10.010000
105 53 5 -2.6667 2.000000 6.000000 8.000000
106 53 6 2.6667 2.010000 6.010000 8.010000
107 54 5 -2.6667 0.000000 6.000000 10.000000
108 54 6 2.6667 0.010000 6.010000 10.010000
109 55 5 -2.6667 2.000000 4.000000 10.000000
110 55 6 2.6667 2.010000 4.010000 10.010000
111 56 1 2.0000 0.000000 4.000000 12.000000
112 56 2 -2.0000 0.010000 4.010000 12.010000
113 57 3 4.0000 2.000000 6.000000 14.000000
114 57 4 -4.0000 2.010000 6.010000 14.010000
115 58 5 -2.6667 2.000000 6.000000 12.000000
116 58 6 2.6667 2.010000 6.010000 12.010000
117 59 5 -2.6667 0.000000 6.000000 14.000000
118 59 6 2.6667 0.010000 6.010000 14.010000
119 60 5 -2.6667 2.000000 4.000000 14.000000
120 60 6 2.6667 2.010000 4.010000 14.010000
121 61 1 2.0000 0.000000 4.000000 16.000000
122 61 2 -2.0000 0.010000 4.010000 16.010000
123 62 3 4.0000 2.000000 6.000000 18.000000
124 62 4 -4.0000 2.010000 6.010000 18.010000
125 63 5 -2.6667 2.000000 6.000000 16.000000
126 63 6 2.6667 2.010000 6.010000 16.010000
127 64 5 -2.6667 0.000000 6.000000 18.000000
128 64 6 2.6667 0.010000 6.010000 18.010000
129 65 5 -2.6667 2.000000 4.000000 18.000000
130 65 6 2.6667 2.010000 4.010000 18.010000
131 66 1 2.0000 0.000000 4.000000 20.000000
132 66 2 -2.0000 0.010000 4.010000 20.010000
133 67 3 4.0000 2.000000 6.000000 22.000000
134 67 4 -4.0000 2.010000 6.010000 22.010000
135 68 5 -2.6667 2.000000 6.000000 20.000000
136 68 6 2.6667 2.010000 6.010000 20.010000
137 69 5 -2.6667 0.000000 6.000000 22.000000
138 69 6 2.6667 0.010000 6.010000 22.010000
139 70 5 -2.6667 2.000000 4.000000 22.000000
140 70 6 2.6667 2.010000 4.010000 22.010000
141 71 1 2.0000 0.000000 4.000000 24.000000
142 71 2 -2.0000 0.010000 4.010000 24.010000
143 72 3 4.0000 2.000000 6.000000 26.000000
144 72 4 -4.0000 2.010000 6.010000 26.010000
145 73 5 -2.6667 2.000000 6.000000 24.000000
146 73 6 2.6667 2.010000 6.010000 24.010000
147 74 5 -2.6667 0.000000 6.000000 26.000000
148 74 6 2.6667 0.010000 6.010000 26.010000
149 75 5 -2.6667 2.000000 4.000000 26.000000
150 75 6 2.6667 2.010000 4.010000 26.010000
151 76 1 2.0000 0.000000 4.000000 28.000000
152 76 2 -2.0000 0.010000 4.010000 28.010000
153 77 3 4.0000 2.000000 6.000000 30.000000
154 77 4 -4.0000 2.010000 6.010000 30.010000
155 78 5 -2.6667 2.000000 6.000000 28.000000
156 78 6 2.6667 2.010000 6.010000 28.010000
157 79 5 -2.6667 0.000000 6.000000 30.000000
158 79 6 2.6667 0.010000 6.010000 30.010000
159 80 5 -2.6667 2.000000 4.000000 30.000000
160 80 6 2.6667 2.010000 4.010000 30.010000
161 81 1 2.0000 0.000000 8.000000 0.000000
162 81 2 -2.0000 0.010000 8.010000 0.010000
163 82 3 4.0000 2.000000 10.000000 2.000000
164 82 4 -4.0000 2.010000 10.010000 2.010000
165 83 5 -2.6667 2.000000 10.000000 0.000000
166 83 6 2.6667 2.010000 10.010000 0.010000
167 84 5 -2.6667 0.000000 10.000000 2.000000
168 84 6 2.6667 0.010000 10.010000 2.010000
169 85 5 -2.6667 2.000000 8.000000 2.000000
170 85 6 2.6667 2.010000 8.010000 2.010000
171 86 1 2.0000 0.000000 8.000000 4.000000
172 86 2 -2.0000 0.010000 8.010000 4.010000
173 87 3 4.0000 2.000000 10.000000 6.000000
174 87 4 -4.0000 2.010000 10.010000 6.010000
175 88 5 -2.6667 2.000000 10.000000 4.000000
176 88 6 2.6667 2.010000 10.010000 4.010000
177 89 5 -2.6667 0.000000 10.000000 6.000000
178 89 6 2.6667 0.010000 10.010000 6.010000
179 90 5 -2.6667 2.000000 8.000000 6.000000
180 90 6 2.6667 2.010000 8.010000 6.010000
181 91 1 2.0000 0.000000 8.000000 8.000000
182 91 2 -2.0000 0.010000 8.010000 8.010000
183 92 3 4.0000 2.000000 10.000000 10.000000
184 92 4 -4.0000 2.010000 10.010000 10.010000
185 93 5 -2.6667 2.000000 10.000000 8.000000
186 93 6 2.6667 2.010000 10.010000 8.010000
187 94 5 -2.6667 0.000000 10.000000 10.000000
188 94 6 2.6667 0.010000 10.010000 10.010000
189 95 5 -2.6667 2.000000 8.000000 10.000000
190 95 6 2.6667 2.010000 8.010000 10.010000
191 96 1 2.0000 0.000000 8.000000 12.000000
192 96 2 -2.0000 0.010000 8.010000 12.010000
193 97 3 4.0000 2.000000 10.000000 14.000000
194 97 4 -4.0000 2.010000 10.010000 14.010000
195 98 5 -2.6667 2.000000 10.000000 12.000000
196 98 6 2.6667 2.010000 10.010000 12.010000
197 99 5 -2.6667 0.000000 10.000000 14.000000
198 99 6 2.6667 0.010000 10.010000 14.010000
199 100 5 -2.6667 2.000000 8.000000 14.000000
200 100 6 2.6667 2.010000 8.010000 14.010000
201 101 1 2.0000 0.000000 8.000000 16.000000
202 101 2 -2.0000 0.010000 8.010000 16.010000
203 102 3 4.0000 2.000000 10.000000 18.000000
204 102 4 -4.0000 2.010000 10.010000 18.010000
205 103 5 -2.6667 2.000000 10.000000 16.000000
206 103 6 2.6667 2.010000 10.010000 16.010000
207 104 5 -2.6667 0.000000 10.000000 18.000000
208 104 6 2.6667 0.010000 10.010000 18.010000
209 105 5 -2.6667 2.000000 8.000000 18.000000
210 105 6 2.6667 2.010000 8.010000 18.010000
211 106 1 2.0000 0.000000 8.000000 20.000000
212 106 2 -2.0000 0.010000 8.010000 20.010000
213 107 3 4.0000 2.000000 10.000000 22.000000
214 107 4 -4.0000 2.010000 10.010000 22.010000
215 108 5 -2.6667 2.000000 10.000000 20.000000
216 108 6 2.6667 2.010000 10.010000 20.010000
217 109 5 -2.6667 0.000000 10.000000 22.000000
218 109 6 2.6667 0.010000 10.010000 22.010000
219 110 5 -2.6667 2.000000 8.000000 22.000000
220 110 6 2.6667 2.010000 8.010000 22.010000
221 111 1 2.0000 0.000000 8.000000 24.000000
222 111 2 -2.0000 0.010000 8.010000 24.010000
223 112 3 4.0000 2.000000 10.000000 26.000000
224 112 4 -4.0000 2.010000 10.010000 26.010000
225 113 5 -2.6667 2.000000 10.000000 24.000000
226 113 6 2.6667 2.010000 10.010000 24.010000
227 114 5 -2.6667 0.000000 10.000000 26.000000
228 114 6 2.6667 0.010000 10.010000 26.010000
229 115 5 -2.6667 2.000000 8.000000 26.000000
230 115 6 2.6667 2.010000 8.010000 26.010000
231 116 1 2.0000 0.000000 8.000000 28.000000
232 116 2 -2.0000 0.010000 8.010000 28.010000
233 117 3 4.0000 2.000000 10.000000 30.000000
234 117 4 -4.0000 2.010000 10.010000 30.010000
235 118 5 -2.6667 2.000000 10.000000 28.000000
236 118 6 2.6667 2.010000 10.010000 28.010000
237 119 5 -2.6667 0.000000 10.000000 30.000000
238 119 6 2.6667 0.010000 10.010000 30.010000
239 120 5 -2.6667 2.000000 8.000000 30.000000
240 120 6 2.6667 2.010000 8.010000 30.010000
241 121 1 2.0000 0.000000 12.000000 0.000000
242 121 2 -2.0000 0.010000 12.010000 0.010000
243 122 3 4.0000 2.000000 14.000000 2.000000
244 122 4 -4.0000 2.010000 14.010000 2.010000
245 123 5 -2.6667 2.000000 14.000000 0.000000
246 123 6 2.6667 2.010000 14.010000 0.010000
247 124 5 -2.6667 0.000000 14.000000 2.000000
248 124 6 2.6667 0.010000 14.010000 2.010000
249 125 5 -2.6667 2.000000 12.000000 2.000000
250 125 6 2.6667 2.010000 12.010000 2.010000
251 126 1 2.0000 0.000000 12.000000 4.000000
252 126 2 -2.0000 0.010000 12.010000 4.010000
253 127 3 4.0000 2.000000 14.000000 6.000000
254 127 4 -4.0000 2.010000 14.010000 6.010000
255 128 5 -2.6667 2.000000 14.000000 4.000000
256 128 6 2.6667 2.010000 14.010000 4.010000
257 129 5 -2.6667 0.000000 14.000000 6.000000
258 129 6 2.6667 0.010000 14.010000 6.010000
259 130 5 -2.6667 2.000000 12.000000 6.000000
260 130 6 2.6667 2.010000 12.010000 6.010000
261 131 1 2.0000 0.000000 12.000000 8.000000
262 131 2 -2.0000 0.010000 12.010000 8.010000
263 132 3 4.0000 2.000000 14.000000 10.000000
264 132 4 -4.0000 2.010000 14.010000 10.010000
265 133 5 -2.6667 2.000000 14.000000 8.000000
266 133 6 2.6667 2.010000 14.010000 8.010000
267 134 5 -2.6667 0.000000 14.000000 10.000000
268 134 6 2.6667 0.010000 14.010000 10.010000
269 135 5 -2.6667 2.000000 12.000000 10.000000
270 135 6 2.6667 2.010000 12.010000 10.010000
271 136 1 2.0000 0.000000 12.000000 12.000000
272 136 2 -2.0000 0.010000 12.010000 12.010000
273 137 3 4.0000 2.000000 14.000000 14.000000
274 137 4 -4.0000 2.010000 14.010000 14.010000
275 138 5 -2.6667 2.000000 14.000000 12.000000
276 138 6 2.6667 2.010000 14.010000 12.010000
277 139 5 -2.6667 0.000000 14.000000 14.000000
278 139 6 2.6667 0.010000 14.010000 14.010000
279 140 5 -2.6667 2.000000 12.000000 14.000000
280 140 6 2.6667 2.010000 12.010000 14.010000
281 141 1 2.0000 0.000000 12.000000 16.000000
282 141 2 -2.0000 0.010000 12.010000 16.010000
283 142 3 4.0000 2.000000 14.000000 18.000000
284 142 4 -4.0000 2.010000 14.010000 18.010000
285 143 5 -2.6667 2.000000 14.000000 16.000000
286 143 6 2.6667 2.010000 14.010000 16.010000
287 144 5 -2.6667 0.000000 14.000000 18.000000
288 144 6 2.6667 0.010000 14.010000 18.010000
289 145 5 -2.6667 2.000000 12.000000 18.000000
290 145 6 2.6667 2.010000 12.010000 18.010000
291 146 1 2.0000 0.000000 12.000000 20.000000
292 146 2 -2.0000 0.010000 12.010000 20.010000
293 147 3 4.0000 2.000000 14.000000 22.000000
294 147 4 -4.0000 2.010000 14.010000 22.010000
295 148 5 -2.6667 2.000000 14.000000 20.000000
296 148 6 2.6667 2.010000 14.010000 20.010000
297 149 5 -2.6667 0.000000 14.000000 22.000000
298 149 6 2.6667 0.010000 14.010000 22.010000
299 150 5 -2.6667 2.000000 12.000000 22.000000
300 150 6 2.6667 2.010000 12.010000 22.010000
301 151 1 2.0000 0.000000 12.000000 24.000000
302 151 2 -2.0000 0.010000 12.010000 24.010000
303 152 3 4.0000 2.000000 14.000000 26.000000
304 152 4 -4.0000 2.010000 14.010000 26.010000
305 153 5 -2.6667 2.000000 14.000000 24.000000
306 153 6 2.6667 2.010000 14.010000 24.010000
307 154 5 -2.6667 0.000000 14.000000 26.000000
308 154 6 2.6667 0.010000 14.010000 26.010000
309 155 5 -2.6667 2.000000 12.000000 26.000000
310 155 6 2.6667 2.010000 12.010000 26.010000
311 156 1 2.0000 0.000000 12.000000 28.000000
312 156 2 -2.0000 0.010000 12.010000 28.010000
313 157 3 4.0000 2.000000 14.000000 30.000000
314 157 4 -4.0000 2.010000 14.010000 30.010000
315 158 5 -2.6667 2.000000 14.000000 28.000000
316 158 6 2.6667 2.010000 14.010000 28.010000
317 159 5 -2.6667 0.000000 14.000000 30.000000
318 159 6 2.6667 0.010000 14.010000 30.010000
319 160 5 -2.6667 2.000000 12.000000 30.000000
320 160 6 2.6667 2.010000 12.010000 30.010000
321 161 1 2.0000 0.000000 16.000000 0.000000
322 161 2 -2.0000 0.010000 16.010000 0.010000
323 162 3 4.0000 2.000000 18.000000 2.000000
324 162 4 -4.0000 2.010000 18.010000 2.010000
325 163 5 -2.6667 2.000000 18.000000 0.000000
326 163 6 2.6667 2.010000 18.010000 0.010000
327 164 5 -2.6667 0.000000 18.000000 2.000000
328 164 6 2.6667 0.010000 18.010000 2.010000
329 165 5 -2.6667 2.000000 16.000000 2.000000
330 165 6 2.6667 2.010000 16.010000 2.010000
331 166 1 2.0000 0.000000 16.000000 4.000000
332 166 2 -2.0000 0.010000 16.010000 4.010000
333 167 3 4.0000 2.000000 18.000000 6.000000
334 167 4 -4.0000 2.010000 18.010000 6.010000
335 168 5 -2.6667 2.000000 18.000000 4.000000
336 168 6 2.6667 2.010000 18.010000 4.010000
337 169 5 -2.6667 0.000000 18.000000 6.000000
338 169 6 2.6667 0.010000 18.010000 6.010000
339 170 5 -2.6667 2.000000 16.000000 6.000000
340 170 6 2.6667 2.010000 16.010000 6.010000
341 171 1 2.0000 0.000000 16.000000 8.000000
342 171 2 -2.0000 0.010000 16.010000 8.010000
343 172 3 4.0000 2.000000 18.000000 10.000000
344 172 4 -4.0000 2.010000 18.010000 10.010000
345 173 5 -2.6667 2.000000 18.000000 8.000000
346 173 6 2.6667 2.010000 18.010000 8.010000
347 174 5 -2.6667 0.000000 18.000000 10.000000
348 174 6 2.6667 0.010000 18.010000 10.010000
349 175 5 -2.6667 2.000000 16.000000 10.000000
350 175 6 2.6667 2.010000 16.010000 10.010000
351 176 1 2.0000 0.000000 16.000000 12.000000
352 176 2 -2.0000 0.010000 16.010000 12.010000
353 177 3 4.0000 2.000000 18.000000 14.000000
354 177 4 -4.0000 2.010000 18.010000 14.010000
355 178 5 -2.6667 2.000000 18.000000 12.000000
356 178 6 2.6667 2.010000 18.010000 12.010000
357 179 5 -2.6667 0.000000 18.000000 14.000000
358 179 6 2.6667 0.010000 18.010000 14.010000
359 180 5 -2.6667 2.000000 16.000000 14.000000
360 180 6 2.6667 2.010000 16.010000 14.010000
361 181 1 2.0000 0.000000 16.000000 16.000000
362 181 2 -2.0000 0.010000 16.010000 16.010000
363 182 3 4.0000 2.000000 18.000000 18.000000
364 182 4 -4.0000 2.010000 18.010000 18.010000
365 183 5 -2.6667 2.000000 18.000000 16.000000
366 183 6 2.6667 2.010000 18.010000 16.010000
367 184 5 -2.6667 0.000000 18.000000 18.000000
368 184 6 2.6667 0.010000 18.010000 18.010000
369 185 5 -2.6667 2.000000 16.000000 18.000000
370 185 6 2.6667 2.010000 16.010000 18.010000
371 186 1 2.0000 0.000000 16.000000 20.000000
372 186 2 -2.0000 0.010000 16.010000 20.010000
373 187 3 4.0000 2.000000 18.000000 22.000000
374 187 4 -4.0000 2.010000 18.010000 22.010000
375 188 5 -2.6667 2.000000 18.000000 20.000000
376 188 6 2.6667 2.010000 18.010000 20.010000
377 189 5 -2.6667 0.000000 18.000000 22.000000
378 189 6 2.6667 0.010000 18.010000 22.010000
379 190 5 -2.6667 2.000000 16.000000 22.000000
380 190 6 2.6667 2.010000 16.010000 22.010000
381 191 1 2.0000 0.000000 16.000000 24.000000
382 191 2 -2.0000 0.010000 16.010000 24.010000
383 192 3 4.0000 2.000000 18.000000 26.000000
384 192 4 -4.0000 2.010000 18.010000 26.010000
385 193 5 -2.6667 2.000000 18.000000 24.000000
386 193 6 2.6667 2.010000 18.010000 24.010000
387 194 5 -2.6667 0.000000 18.000000 26.000000
388 194 6 2.6667 0.010000 18.010000 26.010000
389 195 5 -2.6667 2.000000 16.000000 26.000000
390 195 6 2.6667 2.010000 16.010000 26.010000
391 196 1 2.0000 0.000000 16.000000 28.000000
392 196 2 -2.0000 0.010000 16.010000 28.010000
393 197 3 4.0000 2.000000 18.000000 30.000000
394 197 4 -4.0000 2.010000 18.010000 30.010000
395 198 5 -2.6667 2.000000 18.000000 28.000000
396 198 6 2.6667 2.010000 18.010000 28.010000
397 199 5 -2.6667 0.000000 18.000000 30.000000
398 199 6 2.6667 0.010000 18.010000 30.010000
399 200 5 -2.6667 2.000000 16.000000 30.000000
400 200 6 2.6667 2.010000 16.010000 30.010000
401 201 1 2.0000 0.000000 20.000000 0.000000
402 201 2 -2.0000 0.010000 20.010000 0.010000
403 202 3 4.0000 2.000000 22.000000 2.000000
404 202 4 -4.0000 2.010000 22.010000 2.010000
405 203 5 -2.6667 2.000000 22.000000 0.000000
406 203 6 2.6667 2.010000 22.010000 0.010000
407 204 5 -2.6667 0.000000 22.000000 2.000000
408 204 6 2.6667 0.010000 22.010000 2.010000
409 205 5 -2.6667 2.000000 20.000000 2.000000
410 205 6 2.6667 2.010000 20.010000 2.010000
411 206 1 2.0000 0.000000 20.000000 4.000000
412 206 2 -2.0000 0.010000 20.010000 4.010000
413 207 3 4.0000 2.000000 22.000000 6.000000
414 207 4 -4.0000 2.010000 22.010000 6.010000
415 208 5 -2.6667 2.000000 22.000000 4.000000
416 208 6 2.6667 2.010000 22.010000 4.010000
417 209 5 -2.6667 0.000000 22.000000 6.000000
418 209 6 2.6667 0.010000 22.010000 6.010000
419 210 5 -2.6667 2.000000 20.000000 6.000000
420 210 6 2.6667 2.010000 20.010000 6.010000
421 211 1 2.0000 0.000000 20.000000 8.000000
422 211 2 -2.0000 0.010000 20.010000 8.010000
423 212 3 4.0000 2.000000 22.000000 10.000000
424 212 4 -4.0000 2.010000 22.010000 10.010000
425 213 5 -2.6667 2.000000 22.000000 8.000000
426 213 6 2.6667 2.010000 22.010000 8.010000
427 214 5 -2.6667 0.000000 22.000000 10.000000
428 214 6 2.6667 0.010000 22.010000 10.010000
429 215 5 -2.6667 2.000000 20.000000 10.000000
430 215 6 2.6667 2.010000 20.010000 10.010000
431 216 1 2.0000 0.000000 20.000000 12.000000
432 216 2 -2.0000 0.010000 20.010000 12.010000
433 217 3 4.0000 2.000000 22.000000 14.000000
434 217 4 -4.0000 2.010000 22.010000 14.010000
435 218 5 -2.6667 2.000000 22.000000 12.000000
436 218 6 2.6667 2.010000 22.010000 12.010000
437 219 5 -2.6667 0.000000 22.000000 14.000000
438 219 6 2.6667 0.010000 22.010000 14.010000
439 220 5 -2.6667 2.000000 20.000000 14.000000
440 220 6 2.6667 2.010000 20.010000 14.010000
441 221 1 2.0000 0.000000 20.000000 16.000000
442 221 2 -2.0000 0.010000 20.010000 16.010000
443 222 3 4.0000 2.000000 22.000000 18.000000
444 222 4 -4.0000 2.010000 22.010000 18.010000
445 223 5 -2.6667 2.000000 22.000000 16.000000
446 223 6 2.6667 2.010000 22.010000 16.010000
447 224 5 -2.6667 0.000000 22.000000 18.000000
448 224 6 2.6667 0.010000 22.010000 18.010000
449 225 5 -2.6667 2.000000 20.000000 18.000000
450 225 6 2.6667 2.010000 20.010000 18.010000
451 226 1 2.0000 0.000000 20.000000 20.000000
452 226 2 -2.0000 0.010000 20.010000 20.010000
453 227 3 4.0000 2.000000 22.000000 22.000000
454 227 4 -4.0000 2.010000 22.010000 22.010000
455 228 5 -2.6667 2.000000 22.000000 20.000000
456 228 6 2.6667 2.010000 22.010000 20.010000
457 229 5 -2.6667 0.000000 22.000000 22.000000
458 229 6 2.6667 0.010000 22.010000 22.010000
459 230 5 -2.6667 2.000000 20.000000 22.000000
460 230 6 2.6667 2.010000 20.010000 22.010000
461 231 1 2.0000 0.000000 20.000000 24.000000
462 231 2 -2.0000 0.010000 20.010000 24.010000
463 232 3 4.0000 2.000000 22.000000 26.000000
464 232 4 -4.0000 2.010000 22.010000 26.010000
465 233 5 -2.6667 2.000000 22.000000 24.000000
466 233 6 2.6667 2.010000 22.010000 24.010000
467 234 5 -2.6667 0.000000 22.000000 26.000000
468 234 6 2.6667 0.010000 22.010000 26.010000
469 235 5 -2.6667 2.000000 20.000000 26.000000
470 235 6 2.6667 2.010000 20.010000 26.010000
471 236 1 2.0000 0.000000 20.000000 28.000000
472 236 2 -2.0000 0.010000 20.010000 28.010000
473 237 3 4.0000 2.000000 22.000000 30.000000
474 237 4 -4.0000 2.010000 22.010000 30.010000
475 238 5 -2.6667 2.000000 22.000000 28.000000
476 238 6 2.6667 2.010000 22.010000 28.010000
477 239 5 -2.6667 0.000000 22.000000 30.000000
478 239 6 2.6667 0.010000 22.010000 30.010000
479 240 5 -2.6667 2.000000 20.000000 30.000000
480 240 6 2.6667 2.010000 20.010000 30.010000
481 241 1 2.0000 0.000000 24.000000 0.000000
482 241 2 -2.0000 0.010000 24.010000 0.010000
483 242 3 4.0000 2.000000 26.000000 2.000000
484 242 4 -4.0000 2.010000 26.010000 2.010000
485 243 5 -2.6667 2.000000 26.000000 0.000000
486 243 6 2.6667 2.010000 26.010000 0.010000
487 244 5 -2.6667 0.000000 26.000000 2.000000
488 244 6 2.6667 0.010000 26.010000 2.010000
489 245 5 -2.6667 2.000000 24.000000 2.000000
490 245 6 2.6667 2.010000 24.010000 2.010000
491 246 1 2.0000 0.000000 24.000000 4.000000
492 246 2 -2.0000 0.010000 24.010000 4.010000
493 247 3 4.0000 2.000000 26.000000 6.000000
494 247 4 -4.0000 2.010000 26.010000 6.010000
495 248 5 -2.6667 2.000000 26.000000 4.000000
496 248 6 2.6667 2.010000 26.010000 4.010000
497 249 5 -2.6667 0.000000 26.000000 6.000000
498 249 6 2.6667 0.010000 26.010000 6.010000
499 250 5 -2.6667 2.000000 24.000000 6.000000
500 250 6 2.6667 2.010000 24.010000 6.010000
501 251 1 2.0000 0.000000 24.000000 8.000000
502 251 2 -2.0000 0.010000 24.010000 8.010000
503 252 3 4.0000 2.000000 26.000000 10.000000
504 252 4 -4.0000 2.010000 26.010000 10.010000
505 253 5 -2.6667 2.000000 26.000000 8.000000
506 253 6 2.6667 2.010000 26.010000 8.010000
507 254 5 -2.6667 0.000000 26.000000 10.000000
508 254 6 2.6667 0.010000 26.010000 10.010000
509 255 5 -2.6667 2.000000 24.000000 10.000000
510 255 6 2.6667 2.010000 24.010000 10.010000
511 256 1 2.0000 0.000000 24.000000 12.000000
512 256 2 -2.0000 0.010000 24.010000 12.010000
513 257 3 4.0000 2.000000 26.000000 14.000000
514 257 4 -4.0000 2.010000 26.010000 14.010000
515 258 5 -2.6667 2.000000 26.000000 12.000000
516 258 6 2.6667 2.010000 26.010000 12.010000
517 259 5 -2.6667 0.000000 26.000000 14.000000
518 259 6 2.6667 0.010000 26.010000 14.010000
519 260 5 -2.6667 2.000000 24.000000 14.000000
520 260 6 2.6667 2.010000 24.010000 14.010000
521 261 1 2.0000 0.000000 24.000000 16.000000
522 261 2 -2.0000 0.010000 24.010000 16.010000
523 262 3 4.0000 2.000000 26.000000 18.000000
524 262 4 -4.0000 2.010000 26.010000 18.010000
525 263 5 -2.6667 2.000000 26.000000 16.000000
526 263 6 2.6667 2.010000 26.010000 16.010000
527 264 5 -2.6667 0.000000 26.000000 18.000000
528 264 6 2.6667 0.010000 26.010000 18.010000
529 265 5 -2.6667 2.000000 24.000000 18.000000
530 265 6 2.6667 2.010000 24.010000 18.010000
531 266 1 2.0000 0.000000 24.000000 20.000000
532 266 2 -2.0000 0.010000 24.010000 20.010000
533 267 3 4.0000 2.000000 26.000000 22.000000
534 267 4 -4.0000 2.010000 26.010000 22.010000
535 268 5 -2.6667 2.000000 26.000000 20.000000
536 268 6 2.6667 2.010000 26.010000 20.010000
537 269 5 -2.6667 0.000000 26.000000 22.000000
538 269 6 2.6667 0.010000 26.010000 22.010000
539 270 5 -2.6667 2.000000 24.000000 22.000000
540 270 6 2.6667 2.010000 24.010000 22.010000
541 271 1 2.0000 0.000000 24.000000 24.000000
542 271 2 -2.0000 0.010000 24.010000 24.010000
543 272 3 4.0000 2.000000 26.000000 26.000000
544 272 4 -4.0000 2.010000 26.010000 26.010000
545 273 5 -2.6667 2.000000 26.000000 24.000000
546 273 6 2.6667 2.010000 26.010000 24.010000
547 274 5 -2.6667 0.000000 26.000000 26.000000
548 274 6 2.6667 0.010000 26.010000 26.010000
549 275 5 -2.6667 2.000000 24.000000 26.000000
550 275 6 2.6667 2.010000 24.010000 26.010000
551 276 1 2.0000 0.000000 24.000000 28.000000
552 276 2 -2.0000 0.010000 24.010000 28.010000
553 277 3 4.0000 2.000000 26.000000 30.000000
554 277 4 -4.0000 2.010000 26.010000 30.010000
555 278 5 -2.6667 2.000000 26.000000 28.000000
556 278 6 2.6667 2.010000 26.010000 28.010000
557 279 5 -2.6667 0.000000 26.000000 30.000000
558 279 6 2.6667 0.010000 26.010000 30.010000
559 280 5 -2.6667 2.000000 24.000000 30.000000
560 280 6 2.6667 2.010000 24.010000 30.010000
561 281 1 2.0000 0.000000 28.000000 0.000000
562 281 2 -2.0000 0.010000 28.010000 0.010000
563 282 3 4.0000 2.000000 30.000000 2.000000
564 282 4 -4.0000 2.010000 30.010000 2.010000
565 283 5 -2.6667 2.000000 30.000000 0.000000
566 283 6 2.6667 2.010000 30.010000 0.010000
567 284 5 -2.6667 0.000000 30.000000 2.000000
568 284 6 2.6667 0.010000 30.010000 2.010000
569 285 5 -2.6667 2.000000 28.000000 2.000000
570 285 6 2.6667 2.010000 28.010000 2.010000
571 286 1 2.0000 0.000000 28.000000 4.000000
572 286 2 -2.0000 0.010000 28.010000 4.010000
573 287 3 4.0000 2.000000 30.000000 6.000000
574 287 4 -4.0000 2.010000 30.010000 6.010000
575 288 5 -2.6667 2.000000 30.000000 4.000000
576 288 6 2.6667 2.010000 30.010000 4.010000
577 289 5 -2.6667 0.000000 30.000000 6.000000
578 289 6 2.6667 0.010000 30.010000 6.010000
579 290 5 -2.6667 2.000000 28.000000 6.000000
580 290 6 2.6667 2.010000 28.010000 6.010000
581 291 1 2.0000 0.000000 28.000000 8.000000
582 291 2 -2.0000 0.010000 28.010000 8.010000
583 292 3 4.0000 2.000000 30.000000 10.000000
584 292 4 -4.0000 2.010000 30.010000 10.010000
585 293 5 -2.6667 2.000000 30.000000 8.000000
586 293 6 2.6667 2.010000 30.010000 8.010000
587 294 5 -2.6667 0.000000 30.000000 10.000000
588 294 6 2.6667 0.010000 30.010000 10.010000
589 295 5 -2.6667 2.000000 28.000000 10.000000
590 295 6 2.6667 2.010000 28.010000 10.010000
591 296 1 2.0000 0.000000 28.000000 12.000000
592 296 2 -2.0000 0.010000 28.010000 12.010000
593 297 3 4.0000 2.000000 30.000000 14.000000
594 297 4 -4.0000 2.010000 30.010000 14.010000
595 298 5 -2.6667 2.000000 30.000000 12.000000
596 298 6 2.6667 2.010000 30.010000 12.010000
597 299 5 -2.6667 0.000000 30.000000 14.000000
598 299 6 2.6667 0.010000 30.010000 14.010000
599 300 5 -2.6667 2.000000 28.000000 14.000000
600 300 6 2.6667 2.010000 28.010000 14.010000
601 301 1 2.0000 0.000000 28.000000 16.000000
602 301 2 -2.0000 0.010000 28.010000 16.010000
603 302 3 4.0000 2.000000 30.000000 18.000000
604 302 4 -4.0000 2.010000 30.010000 18.010000
605 303 5 -2.6667 2.000000 30.000000 16.000000
606 303 6 2.6667 2.010000 30.010000 16.010000
607 304 5 -2.6667 0.000000 30.000000 18.000000
608 304 6 2.6667 0.010000 30.010000 18.010000
609 305 5 -2.6667 2.000000 28.000000 18.000000
610 305 6 2.6667 2.010000 28.010000 18.010000
611 306 1 2.0000 0.000000 28.000000 20.000000
612 306 2 -2.0000 0.010000 28.010000 20.010000
613 307 3 4.0000 2.000000 30.000000 22.000000
614 307 4 -4.0000 2.010000 30.010000 22.010000
615 308 5 -2.6667 2.000000 30.000000 20.000000
616 308 6 2.6667 2.010000 30.010000 20.010000
617 309 5 -2.6667 0.000000 30.000000 22.000000
618 309 6 2.6667 0.010000 30.010000 22.010000
619 310 5 -2.6667 2.000000 28.000000 22.000000
620 310 6 2.6667 2.010000 28.010000 22.010000
621 311 1 2.0000 0.000000 28.000000 24.000000
622 311 2 -2.0000 0.010000 28.010000 24.010000
623 312 3 4.0000 2.000000 30.000000 26.000000
624 312 4 -4.0000 2.010000 30.010000 26.010000
625 313 5 -2.6667 2.000000 30.000000 24.000000
626 313 6 2.6667 2.010000 30.010000 24.010000
627 314 5 -2.6667 0.000000 30.000000 26.000000
628 314 6 2.6667 0.010000 30.010000 26.010000
629 315 5 -2.6667 2.000000 28.000000 26.000000
630 315 6 2.6667 2.010000 28.010000 26.010000
631 316 1 2.0000 0.000000 28.000000 28.000000
632 316 2 -2.0000 0.010000 28.010000 28.010000
633 317 3 4.0000 2.000000 30.000000 30.000000
634 317 4 -4.0000 2.010000 30.010000 30.010000
635 318 5 -2.6667 2.000000 30.000000 28.000000
636 318 6 2.6667 2.010000 30.010000 28.010000
637 319 5 -2.6667 0.000000 30.000000 30.000000
638 319 6 2.6667 0.010000 30.010000 30.010000
639 320 5 -2.6667 2.000000 28.000000 30.000000
640 320 6 2.6667 2.010000 28.010000 30.010000
641 321 1 2.0000 4.000000 0.000000 0.000000
642 321 2 -2.0000 4.010000 0.010000 0.010000
643 322 3 4.0000 6.000000 2.000000 2.000000
644 322 4 -4.0000 6.010000 2.010000 2.010000
645 323 5 -2.6667 6.000000 2.000000 0.000000
646 323 6 2.6667 6.010000 2.010000 0.010000
647 324 5 -2.6667 4.000000 2.000000 2.000000
648 324 6 2.6667 4.010000 2.010000 2.010000
649 325 5 -2.6667 6.000000 0.000000 2.000000
650 325 6 2.6667 6.010000 0.010000 2.010000
651 326 1 2.0000 4.000000 0.000000 4.000000
652 326 2 -2.0000 4.010000 0.010000 4.010000
653 327 3 4.0000 6.000000 2.000000 6.000000
654 327 4 -4.0000 6.010000 2.010000 6.010000