ITEM: TIMESTEP
0
ITEM: NUMBER OF ATOMS
10000
ITEM: BOX BOUNDS pp pp pp
0.0 40.0000
0.0 40.0000
0.0 40.0000
ITEM: ATOMS id type x y z
1 1 0.000000 0.000000 0.000000
2 2 0.010000 0.010000 0.010000
3 3 2.000000 2.000000 2.000000
4 4 2.010000 2.010000 2.010000
5 5 2.000000 2.000000 0.000000
6 6 2.010000 2.010000 0.010000
7 5 0.000000 2.000000 2.000000
8 6 0.010000 2.010000 2.010000
9 5 2.000000 0.000000 2.000000
10 6 2.010000 0.010000 2.010000
11 1 0.000000 0.000000 4.000000
12 2 0.010000 0.010000 4.010000
13 3 2.000000 2.000000 6.000000
14 4 2.010000 2.010000 6.010000
15 5 2.000000 2.000000 4.000000
16 6 2.010000 2.010000 4.010000
17 5 0.000000 2.000000 6.000000
18 6 0.010000 2.010000 6.010000
19 5 2.000000 0.000000 6.000000
20 6 2.010000 0.010000 6.010000
21 1 0.000000 0.000000 8.000000
22 2 0.010000 0.010000 8.010000
23 3 2.000000 2.000000 10.000000
24 4 2.010000 2.010000 10.010000
25 5 2.000000 2.000000 8.000000
26 6 2.010000 2.010000 8.010000
27 5 0.000000 2.000000 10.000000
28 6 0.010000 2.010000 10.010000
29 5 2.000000 0.000000 10.000000
30 6 2.010000 0.010000 10.010000
31 1 0.000000 0.000000 12.000000
32 2 0.010000 0.010000 12.010000
33 3 2.000000 2.000000 14.000000
34 4 2.010000 2.010000 14.010000
35 5 2.000000 2.000000 12.000000
36 6 2.010000 2.010000 12.010000
37 5 0.000000 2.000000 14.000000
38 6 0.010000 2.010000 14.010000
39 5 2.000000 0.000000 14.000000
40 6 2.010000 0.010000 14.010000
41 1 0.000000 0.000000 16.000000
42 2 0.010000 0.010000 16.010000
43 3 2.000000 2.000000 18.000000
44 4 2.010000 2.010000 18.010000
45 5 2.000000 2.000000 16.000000
46 6 2.010000 2.010000 16.010000
47 5 0.000000 2.000000 18.000000
48 6 0.010000 2.010000 18.010000
49 5 2.000000 0.000000 18.000000
50 6 2.010000 0.010000 18.010000
51 1 0.000000 0.000000 20.000000
52 2 0.010000 0.010000 20.010000
53 3 2.000000 2.000000 22.000000
54 4 2.010000 2.010000 22.010000
55 5 2.000000 2.000000 20.000000
56 6 2.010000 2.010000 20.010000
57 5 0.000000 2.000000 22.000000
58 6 0.010000 2.010000 22.010000
59 5 2.000000 0.000000 22.000000
60 6 2.010000 0.010000 22.010000
61 1 0.000000 0.000000 24.000000
62 2 0.010000 0.010000 24.010000
63 3 2.000000 2.000000 26.000000
64 4 2.010000 2.010000 26.010000
65 5 2.000000 2.000000 24.000000
66 6 2.010000 2.010000 24.010000
67 5 0.000000 2.000000 26.000000
68 6 0.010000 2.010000 26.010000
69 5 2.000000 0.000000 26.000000
70 6 2.010000 0.010000 26.010000
71 1 0.000000 0.000000 28.000000
72 2 0.010000 0.010000 28.010000
73 3 2.000000 2.000000 30.000000
74 4 2.010000 2.010000 30.010000
75 5 2.000000 2.000000 28.000000
76 6 2.010000 2.010000 28.010000
77 5 0.000000 2.000000 30.000000
78 6 0.010000 2.010000 30.010000
79 5 2.000000 0.000000 30.000000
80 6 2.010000 0.010000 30.010000
81 1 0.000000 0.000000 32.000000
82 2 0.010000 0.010000 32.010000
83 3 2.000000 2.000000 34.000000
84 4 2.010000 2.010000 34.010000
85 5 2.000000 2.000000 32.000000
86 6 2.010000 2.010000 32.010000
87 5 0.000000 2.000000 34.000000
88 6 0.010000 2.010000 34.010000
89 5 2.000000 0.000000 34.000000
90 6 2.010000 0.010000 34.010000
91 1 0.000000 0.000000 36.000000
92 2 0.010000 0.010000 36.010000
93 3 2.000000 2.000000 38.000000
94 4 2.010000 2.010000 38.010000
95 5 2.000000 2.000000 36.000000
96 6 2.010000 2.010000 36.010000
97 5 0.000000 2.000000 38.000000
98 6 0.010000 2.010000 38.010000
99 5 2.000000 0.000000 38.000000
100 6 2.010000 0.010000 38.010000
101 1 0.000000 4.000000 0.000000
102 2 0.010000 4.010000 0.010000
103 3 2.000000 6.000000 2.000000
104 4 2.010000 6.010000 2.010000
105 5 2.000000 6.000000 0.000000
106 6 2.010000 6.010000 0.010000
107 5 0.000000 6.000000 2.000000
108 6 0.010000 6.010000 2.010000
109 5 2.000000 4.000000 2.000000
110 6 2.010000 4.010000 2.010000
111 1 0.000000 4.000000 4.000000
112 2 0.010000 4.010000 4.010000
113 3 2.000000 6.000000 6.000000
114 4 2.010000 6.010000 6.010000
115 5 2.000000 6.000000 4.000000
116 6 2.010000 6.010000 4.010000
117 5 0.000000 6.000000 6.000000
118 6 0.010000 6.010000 6.010000
119 5 2.000000 4.000000 6.000000
120 6 2.010000 4.010000 6.010000
121 1 0.000000 4.000000 8.000000
122 2 0.010000 4.010000 8.010000
123 3 2.000000 6.000000 10.000000
124 4 2.010000 6.010000 10.010000
125 5 2.000000 6.000000 8.000000
126 6 2.010000 6.010000 8.010000
127 5 0.000000 6.000000 10.000000
128 6 0.010000 6.010000 10.010000
129 5 2.000000 4.000000 10.000000
130 6 2.010000 4.010000 10.010000
131 1 0.000000 4.000000 12.000000
132 2 0.010000 4.010000 12.010000
133 3 2.000000 6.000000 14.000000
134 4 2.010000 6.010000 14.010000
135 5 2.000000 6.000000 12.000000
136 6 2.010000 6.010000 12.010000
137 5 0.000000 6.000000 14.000000
138 6 0.010000 6.010000 14.010000
139 5 2.000000 4.000000 14.000000
140 6 2.010000 4.010000 14.010000
141 1 0.000000 4.000000 16.000000
142 2 0.010000 4.010000 16.010000
143 3 2.000000 6.000000 18.000000
144 4 2.010000 6.010000 18.010000
145 5 2.000000 6.000000 16.000000
146 6 2.010000 6.010000 16.010000
147 5 0.000000 6.000000 18.000000
148 6 0.010000 6.010000 18.010000
149 5 2.000000 4.000000 18.000000
150 6 2.010000 4.010000 18.010000
151 1 0.000000 4.000000 20.000000
152 2 0.010000 4.010000 20.010000
153 3 2.000000 6.000000 22.000000
154 4 2.010000 6.010000 22.010000
155 5 2.000000 6.000000 20.000000
156 6 2.010000 6.010000 20.010000
157 5 0.000000 6.000000 22.000000
158 6 0.010000 6.010000 22.010000
159 5 2.000000 4.000000 22.000000
160 6 2.010000 4.010000 22.010000
161 1 0.000000 4.000000 24.000000
162 2 0.010000 4.010000 24.010000
163 3 2.000000 6.000000 26.000000
164 4 2.010000 6.010000 26.010000
165 5 2.000000 6.000000 24.000000
166 6 2.010000 6.010000 24.010000
167 5 0.000000 6.000000 26.000000
168 6 0.010000 6.010000 26.010000
169 5 2.000000 4.000000 26.000000
170 6 2.010000 4.010000 26.010000
171 1 0.000000 4.000000 28.000000
172 2 0.010000 4.010000 28.010000
173 3 2.000000 6.000000 30.000000
174 4 2.010000 6.010000 30.010000
175 5 2.000000 6.000000 28.000000
176 6 2.010000 6.010000 28.010000
177 5 0.000000 6.000000 30.000000
178 6 0.010000 6.010000 30.010000
179 5 2.000000 4.000000 30.000000
180 6 2.010000 4.010000 30.010000
181 1 0.000000 4.000000 32.000000
182 2 0.010000 4.010000 32.010000
183 3 2.000000 6.000000 34.000000
184 4 2.010000 6.010000 34.010000
185 5 2.000000 6.000000 32.000000
186 6 2.010000 6.010000 32.010000
187 5 0.000000 6.000000 34.000000
188 6 0.010000 6.010000 34.010000
189 5 2.000000 4.000000 34.000000
190 6 2.010000 4.010000 34.010000
191 1 0.000000 4.000000 36.000000
192 2 0.010000 4.010000 36.010000
193 3 2.000000 6.000000 38.000000
194 4 2.010000 6.010000 38.010000
195 5 2.000000 6.000000 36.000000
196 6 2.010000 6.010000 36.010000
197 5 0.000000 6.000000 38.000000
198 6 0.010000 6.010000 38.010000
199 5 2.000000 4.000000 38.000000
200 6 2.010000 4.010000 38.010000
201 1 0.000000 8.000000 0.000000
202 2 0.010000 8.010000 0.010000
203 3 2.000000 10.000000 2.000000
204 4 2.010000 10.010000 2.010000
205 5 2.000000 10.000000 0.000000
206 6 2.010000 10.010000 0.010000
207 5 0.000000 10.000000 2.000000
208 6 0.010000 10.010000 2.010000
209 5 2.000000 8.000000 2.000000
210 6 2.010000 8.010000 2.010000
211 1 0.000000 8.000000 4.000000
212 2 0.010000 8.010000 4.010000
213 3 2.000000 10.000000 6.000000
214 4 2.010000 10.010000 6.010000
215 5 2.000000 10.000000 4.000000
216 6 2.010000 10.010000 4.010000
217 5 0.000000 10.000000 6.000000
218 6 0.010000 10.010000 6.010000
219 5 2.000000 8.000000 6.000000
220 6 2.010000 8.010000 6.010000
221 1 0.000000 8.000000 8.000000
222 2 0.010000 8.010000 8.010000
223 3 2.000000 10.000000 10.000000
224 4 2.010000 10.010000 10.010000
225 5 2.000000 10.000000 8.000000
226 6 2.010000 10.010000 8.010000
227 5 0.000000 10.000000 10.000000
228 6 0.010000 10.010000 10.010000
229 5 2.000000 8.000000 10.000000
230 6 2.010000 8.010000 10.010000
231 1 0.000000 8.000000 12.000000
232 2 0.010000 8.010000 12.010000
233 3 2.000000 10.000000 14.000000
234 4 2.010000 10.010000 14.010000
235 5 2.000000 10.000000 12.000000
236 6 2.010000 10.010000 12.010000
237 5 0.000000 10.000000 14.000000
238 6 0.010000 10.010000 14.010000
239 5 2.000000 8.000000 14.000000
240 6 2.010000 8.010000 14.010000
241 1 0.000000 8.000000 16.000000
242 2 0.010000 8.010000 16.010000
243 3 2.000000 10.000000 18.000000
244 4 2.010000 10.010000 18.010000
245 5 2.000000 10.000000 16.000000
246 6 2.010000 10.010000 16.010000
247 5 0.000000 10.000000 18.000000
248 6 0.010000 10.010000 18.010000
249 5 2.000000 8.000000 18.000000
250 6 2.010000 8.010000 18.010000
251 1 0.000000 8.000000 20.000000
252 2 0.010000 8.010000 20.010000
253 3 2.000000 10.000000 22.000000
254 4 2.010000 10.010000 22.010000
255 5 2.000000 10.000000 20.000000
256 6 2.010000 10.010000 20.010000
257 5 0.000000 10.000000 22.000000
258 6 0.010000 10.010000 22.010000
259 5 2.000000 8.000000 22.000000
260 6 2.010000 8.010000 22.010000
261 1 0.000000 8.000000 24.000000
262 2 0.010000 8.010000 24.010000
263 3 2.000000 10.000000 26.000000
264 4 2.010000 10.010000 26.010000
265 5 2.000000 10.000000 24.000000
266 6 2.010000 10.010000 24.010000
267 5 0.000000 10.000000 26.000000
268 6 0.010000 10.010000 26.010000
269 5 2.000000 8.000000 26.000000
270 6 2.010000 8.010000 26.010000
271 1 0.000000 8.000000 28.000000
272 2 0.010000 8.010000 28.010000
273 3 2.000000 10.000000 30.000000
274 4 2.010000 10.010000 30.010000
275 5 2.000000 10.000000 28.000000
276 6 2.010000 10.010000 28.010000
277 5 0.000000 10.000000 30.000000
278 6 0.010000 10.010000 30.010000
279 5 2.000000 8.000000 30.000000
280 6 2.010000 8.010000 30.010000
281 1 0.000000 8.000000 32.000000
282 2 0.010000 8.010000 32.010000
283 3 2.000000 10.000000 34.000000
284 4 2.010000 10.010000 34.010000
285 5 2.000000 10.000000 32.000000
286 6 2.010000 10.010000 32.010000
287 5 0.000000 10.000000 34.000000
288 6 0.010000 10.010000 34.010000
289 5 2.000000 8.000000 34.000000
290 6 2.010000 8.010000 34.010000
291 1 0.000000 8.000000 36.000000
292 2 0.010000 8.010000 36.010000
293 3 2.000000 10.000000 38.000000
294 4 2.010000 10.010000 38.010000
295 5 2.000000 10.000000 36.000000
296 6 2.010000 10.010000 36.010000
297 5 0.000000 10.000000 38.000000
298 6 0.010000 10.010000 38.010000
299 5 2.000000 8.000000 38.000000
300 6 2.010000 8.010000 38.010000
301 1 0.000000 12.000000 0.000000
302 2 0.010000 12.010000 0.010000
303 3 2.000000 14.000000 2.000000
304 4 2.010000 14.010000 2.010000
305 5 2.000000 14.000000 0.000000
306 6 2.010000 14.010000 0.010000
307 5 0.000000 14.000000 2.000000
308 6 0.010000 14.010000 2.010000
309 5 2.000000 12.000000 2.000000
310 6 2.010000 12.010000 2.010000
311 1 0.000000 12.000000 4.000000
312 2 0.010000 12.010000 4.010000
313 3 2.000000 14.000000 6.000000
314 4 2.010000 14.010000 6.010000
315 5 2.000000 14.000000 4.000000
316 6 2.010000 14.010000 4.010000
317 5 0.000000 14.000000 6.000000
318 6 0.010000 14.010000 6.010000
319 5 2.000000 12.000000 6.000000
320 6 2.010000 12.010000 6.010000
321 1 0.000000 12.000000 8.000000
322 2 0.010000 12.010000 8.010000
323 3 2.000000 14.000000 10.000000
324 4 2.010000 14.010000 10.010000
325 5 2.000000 14.000000 8.000000
326 6 2.010000 14.010000 8.010000
327 5 0.000000 14.000000 10.000000
328 6 0.010000 14.010000 10.010000
329 5 2.000000 12.000000 10.000000
330 6 2.010000 12.010000 10.010000
331 1 0.000000 12.000000 12.000000
332 2 0.010000 12.010000 12.010000
333 3 2.000000 14.000000 14.000000
334 4 2.010000 14.010000 14.010000
335 5 2.000000 14.000000 12.000000
336 6 2.010000 14.010000 12.010000
337 5 0.000000 14.000000 14.000000
338 6 0.010000 14.010000 14.010000
339 5 2.000000 12.000000 14.000000
340 6 2.010000 12.010000 14.010000
341 1 0.000000 12.000000 16.000000
342 2 0.010000 12.010000 16.010000
343 3 2.000000 14.000000 18.000000
344 4 2.010000 14.010000 18.010000
345 5 2.000000 14.000000 16.000000
346 6 2.010000 14.010000 16.010000
347 5 0.000000 14.000000 18.000000
348 6 0.010000 14.010000 18.010000
349 5 2.000000 12.000000 18.000000
350 6 2.010000 12.010000 18.010000
351 1 0.000000 12.000000 20.000000
352 2 0.010000 12.010000 20.010000
353 3 2.000000 14.000000 22.000000
354 4 2.010000 14.010000 22.010000
355 5 2.000000 14.000000 20.000000
356 6 2.010000 14.010000 20.010000
357 5 0.000000 14.000000 22.000000
358 6 0.010000 14.010000 22.010000
359 5 2.000000 12.000000 22.000000
360 6 2.010000 12.010000 22.010000
361 1 0.000000 12.000000 24.000000
362 2 0.010000 12.010000 24.010000
363 3 2.000000 14.000000 26.000000
364 4 2.010000 14.010000 26.010000
365 5 2.000000 14.000000 24.000000
366 6 2.010000 14.010000 24.010000
367 5 0.000000 14.000000 26.000000
368 6 0.010000 14.010000 26.010000
369 5 2.000000 12.000000 26.000000
370 6 2.010000 12.010000 26.010000
371 1 0.000000 12.000000 28.000000
372 2 0.010000 12.010000 28.010000
373 3 2.000000 14.000000 30.000000
374 4 2.010000 14.010000 30.010000
375 5 2.000000 14.000000 28.000000
376 6 2.010000 14.010000 28.010000
377 5 0.000000 14.000000 30.000000
378 6 0.010000 14.010000 30.010000
379 5 2.000000 12.000000 30.000000
380 6 2.010000 12.010000 30.010000
381 1 0.000000 12.000000 32.000000
382 2 0.010000 12.010000 32.010000
383 3 2.000000 14.000000 34.000000
384 4 2.010000 14.010000 34.010000
385 5 2.000000 14.000000 32.000000
386 6 2.010000 14.010000 32.010000
387 5 0.000000 14.000000 34.000000
388 6 0.010000 14.010000 34.010000
389 5 2.000000 12.000000 34.000000
390 6 2.010000 12.010000 34.010000
391 1 0.000000 12.000000 36.000000
392 2 0.010000 12.010000 36.010000
393 3 2.000000 14.000000 38.000000
394 4 2.010000 14.010000 38.010000
395 5 2.000000 14.000000 36.000000
396 6 2.010000 14.010000 36.010000
397 5 0.000000 14.000000 38.000000
398 6 0.010000 14.010000 38.010000
399 5 2.000000 12.000000 38.000000
400 6 2.010000 12.010000 38.010000
401 1 0.000000 16.000000 0.000000
402 2 0.010000 16.010000 0.010000
403 3 2.000000 18.000000 2.000000
404 4 2.010000 18.010000 2.010000
405 5 2.000000 18.000000 0.000000
406 6 2.010000 18.010000 0.010000
407 5 0.000000 18.000000 2.000000
408 6 0.010000 18.010000 2.010000
409 5 2.000000 16.000000 2.000000
410 6 2.010000 16.010000 2.010000
411 1 0.000000 16.000000 4.000000
412 2 0.010000 16.010000 4.010000
413 3 2.000000 18.000000 6.000000
414 4 2.010000 18.010000 6.010000
415 5 2.000000 18.000000 4.000000
416 6 2.010000 18.010000 4.010000
417 5 0.000000 18.000000 6.000000
418 6 0.010000 18.010000 6.010000
419 5 2.000000 16.000000 6.000000
420 6 2.010000 16.010000 6.010000
421 1 0.000000 16.000000 8.000000
422 2 0.010000 16.010000 8.010000
423 3 2.000000 18.000000 10.000000
424 4 2.010000 18.010000 10.010000
425 5 2.000000 18.000000 8.000000
426 6 2.010000 18.010000 8.010000
427 5 0.000000 18.000000 10.000000
428 6 0.010000 18.010000 10.010000
429 5 2.000000 16.000000 10.000000
430 6 2.010000 16.010000 10.010000
431 1 0.000000 16.000000 12.000000
432 2 0.010000 16.010000 12.010000
433 3 2.000000 18.000000 14.000000
434 4 2.010000 18.010000 14.010000
435 5 2.000000 18.000000 12.000000
436 6 2.010000 18.010000 12.010000
437 5 0.000000 18.000000 14.000000
438 6 0.010000 18.010000 14.010000
439 5 2.000000 16.000000 14.000000
440 6 2.010000 16.010000 14.010000
441 1 0.000000 16.000000 16.000000
442 2 0.010000 16.010000 16.010000
443 3 2.000000 18.000000 18.000000
444 4 2.010000 18.010000 18.010000
445 5 2.000000 18.000000 16.000000
446 6 2.010000 18.010000 16.010000
447 5 0.000000 18.000000 18.000000
448 6 0.010000 18.010000 18.010000
449 5 2.000000 16.000000 18.000000
450 6 2.010000 16.010000 18.010000
451 1 0.000000 16.000000 20.000000
452 2 0.010000 16.010000 20.010000
453 3 2.000000 18.000000 22.000000
454 4 2.010000 18.010000 22.010000
455 5 2.000000 18.000000 20.000000
456 6 2.010000 18.010000 20.010000
457 5 0.000000 18.000000 22.000000
458 6 0.010000 18.010000 22.010000
459 5 2.000000 16.000000 22.000000
460 6 2.010000 16.010000 22.010000
461 1 0.000000 16.000000 24.000000
462 2 0.010000 16.010000 24.010000
463 3 2.000000 18.000000 26.000000
464 4 2.010000 18.010000 26.010000
465 5 2.000000 18.000000 24.000000
466 6 2.010000 18.010000 24.010000
467 5 0.000000 18.000000 26.000000
468 6 0.010000 18.010000 26.010000
469 5 2.000000 16.000000 26.000000
470 6 2.010000 16.010000 26.010000
471 1 0.000000 16.000000 28.000000
472 2 0.010000 16.010000 28.010000
473 3 2.000000 18.000000 30.000000
474 4 2.010000 18.010000 30.010000
475 5 2.000000 18.000000 28.000000
476 6 2.010000 18.010000 28.010000
477 5 0.000000 18.000000 30.000000
478 6 0.010000 18.010000 30.010000
479 5 2.000000 16.000000 30.000000
480 6 2.010000 16.010000 30.010000
481 1 0.000000 16.000000 32.000000
482 2 0.010000 16.010000 32.010000
483 3 2.000000 18.000000 34.000000
484 4 2.010000 18.010000 34.010000
485 5 2.000000 18.000000 32.000000
486 6 2.010000 18.010000 32.010000
487 5 0.000000 18.000000 34.000000
488 6 0.010000 18.010000 34.010000
489 5 2.000000 16.000000 34.000000
490 6 2.010000 16.010000 34.010000
491 1 0.000000 16.000000 36.000000
492 2 0.010000 16.010000 36.010000
493 3 2.000000 18.000000 38.000000
494 4 2.010000 18.010000 38.010000
495 5 2.000000 18.000000 36.000000
496 6 2.010000 18.010000 36.010000
497 5 0.000000 18.000000 38.000000
498 6 0.010000 18.010000 38.010000
499 5 2.000000 16.000000 38.000000
500 6 2.010000 16.010000 38.010000
501 1 0.000000 20.000000 0.000000
502 2 0.010000 20.010000 0.010000
503 3 2.000000 22.000000 2.000000
504 4 2.010000 22.010000 2.010000
505 5 2.000000 22.000000 0.000000
506 6 2.010000 22.010000 0.010000
507 5 0.000000 22.000000 2.000000
508 6 0.010000 22.010000 2.010000
509 5 2.000000 20.000000 2.000000
510 6 2.010000 20.010000 2.010000
511 1 0.000000 20.000000 4.000000
512 2 0.010000 20.010000 4.010000
513 3 2.000000 22.000000 6.000000
514 4 2.010000 22.010000 6.010000
515 5 2.000000 22.000000 4.000000
516 6 2.010000 22.010000 4.010000
517 5 0.000000 22.000000 6.000000
518 6 0.010000 22.010000 6.010000
519 5 2.000000 20.000000 6.000000
520 6 2.010000 20.010000 6.010000
521 1 0.000000 20.000000 8.000000
522 2 0.010000 20.010000 8.010000
523 3 2.000000 22.000000 10.000000
524 4 2.010000 22.010000 10.010000
525 5 2.000000 22.000000 8.000000
526 6 2.010000 22.010000 8.010000
527 5 0.000000 22.000000 10.000000
528 6 0.010000 22.010000 10.010000
529 5 2.000000 20.000000 10.000000
530 6 2.010000 20.010000 10.010000
531 1 0.000000 20.000000 12.000000
532 2 0.010000 20.010000 12.010000
533 3 2.000000 22.000000 14.000000
534 4 2.010000 22.010000 14.010000
535 5 2.000000 22.000000 12.000000
536 6 2.010000 22.010000 12.010000
537 5 0.000000 22.000000 14.000000
538 6 0.010000 22.010000 14.010000
539 5 2.000000 20.000000 14.000000
540 6 2.010000 20.010000 14.010000
541 1 0.000000 20.000000 16.000000
542 2 0.010000 20.010000 16.010000
543 3 2.000000 22.000000 18.000000
544 4 2.010000 22.010000 18.010000
545 5 2.000000 22.000000 16.000000
546 6 2.010000 22.010000 16.010000
547 5 0.000000 22.000000 18.000000
548 6 0.010000 22.010000 18.010000
549 5 2.000000 20.000000 18.000000
550 6 2.010000 20.010000 18.010000
551 1 0.000000 20.000000 20.000000
552 2 0.010000 20.010000 20.010000
553 3 2.000000 22.000000 22.000000
554 4 2.010000 22.010000 22.010000
555 5 2.000000 22.000000 20.000000
556 6 2.010000 22.010000 20.010000
557 5 0.000000 22.000000 22.000000
558 6 0.010000 22.010000 22.010000
559 5 2.000000 20.000000 22.000000
560 6 2.010000 20.010000 22.010000
561 1 0.000000 20.000000 24.000000
562 2 0.010000 20.010000 24.010000
563 3 2.000000 22.000000 26.000000
564 4 2.010000 22.010000 26.010000
565 5 2.000000 22.000000 24.000000
566 6 2.010000 22.010000 24.010000
567 5 0.000000 22.000000 26.000000
568 6 0.010000 22.010000 26.010000
569 5 2.000000 20.000000 26.000000
570 6 2.010000 20.010000 26.010000
571 1 0.000000 20.000000 28.000000
572 2 0.010000 20.010000 28.010000
573 3 2.000000 22.000000 30.000000
574 4 2.010000 22.010000 30.010000
575 5 2.000000 22.000000 28.000000
576 6 2.010000 22.010000 28.010000
577 5 0.000000 22.000000 30.000000
578 6 0.010000 22.010000 30.010000
579 5 2.000000 20.000000 30.000000
580 6 2.010000 20.010000 30.010000
581 1 0.000000 20.000000 32.000000
582 2 0.010000 20.010000 32.010000
583 3 2.000000 22.000000 34.000000
584 4 2.010000 22.010000 34.010000
585 5 2.000000 22.000000 32.000000
586 6 2.010000 22.010000 32.010000
587 5 0.000000 22.000000 34.000000
588 6 0.010000 22.010000 34.010000
589 5 2.000000 20.000000 34.000000
590 6 2.010000 20.010000 34.010000
591 1 0.000000 20.000000 36.000000
592 2 0.010000 20.010000 36.010000
593 3 2.000000 22.000000 38.000000
594 4 2.010000 22.010000 38.010000
595 5 2.000000 22.000000 36.000000
596 6 2.010000 22.010000 36.010000
597 5 0.000000 22.000000 38.000000
598 6 0.010000 22.010000 38.010000
599 5 2.000000 20.000000 38.000000
600 6 2.010000 20.010000 38.010000
601 1 0.000000 24.000000 0.000000
602 2 0.010000 24.010000 0.010000
603 3 2.000000 26.000000 2.000000
604 4 2.010000 26.010000 2.010000
605 5 2.000000 26.000000 0.000000
606 6 2.010000 26.010000 0.010000
607 5 0.000000 26.000000 2.000000
608 6 0.010000 26.010000 2.010000
609 5 2.000000 24.000000 2.000000
610 6 2.010000 24.010000 2.010000
611 1 0.000000 24.000000 4.000000
612 2 0.010000 24.010000 4.010000
613 3 2.000000 26.000000 6.000000
614 4 2.010000 26.010000 6.010000
615 5 2.000000 26.000000 4.000000
616 6 2.010000 26.010000 4.010000
617 5 0.000000 26.000000 6.000000
618 6 0.010000 26.010000 6.010000
619 5 2.000000 24.000000 6.000000
620 6 2.010000 24.010000 6.010000
621 1 0.000000 24.000000 8.000000
622 2 0.010000 24.010000 8.010000
623 3 2.000000 26.000000 10.000000
624 4 2.010000 26.010000 10.010000
625 5 2.000000 26.000000 8.000000
626 6 2.010000 26.010000 8.010000
627 5 0.000000 26.000000 10.000000
628 6 0.010000 26.010000 10.010000
629 5 2.000000 24.000000 10.000000
630 6 2.010000 24.010000 10.010000
631 1 0.000000 24.000000 12.000000
632 2 0.010000 24.010000 12.010000
633 3 2.000000 26.000000 14.000000
634 4 2.010000 26.010000 14.010000
635 5 2.000000 26.000000 12.000000
636 6 2.010000 26.010000 12.010000
637 5 0.000000 26.000000 14.000000
638 6 0.010000 26.010000 14.010000
639 5 2.000000 24.000000 14.000000
640 6 2.010000 24.010000 14.010000
641 1 0.000000 24.000000 16.000000
642 2 0.010000 24.010000 16.010000
643 3 2.000000 26.000000 18.000000
644 4 2.010000 26.010000 18.010000
645 5 2.000000 26.000000 16.000000
646 6 2.010000 26.010000 16.010000
647 5 0.000000 26.000000 18.000000
648 6 0.010000 26.010000 18.010000
649 5 2.000000 24.000000 18.000000
650 6 2.010000 24.010000 18.010000
651 1 0.000000 24.000000 20.000000
652 2 0.010000 24.010000 20.010000
653 3 2.000000 26.000000 22.000000
654 4 2.010000 26.010000 22.010000
655 5 2.000000 26.000000 20.000000
656 6 2.010000 26.010000 20.010000
657 5 0.000000 26.000000 22.000000
658 6 0.010000 26.010000 22.010000
659 5 2.000000 24.000000 22.000000
660 6 2.010000 24.010000 22.010000
661 1 0.000000 24.000000 24.000000
662 2 0.010000 24.010000 24.010000
663 3 2.000000 26.000000 26.000000
664 4 2.010000 26.010000 26.010000
665 5 2.000000 26.000000 24.000000
666 6 2.010000 26.010000 24.010000
667 5 0.000000 26.000000 26.000000
668 6 0.010000 26.010000 26.010000
669 5 2.000000 24.000000 26.000000
670 6 2.010000 24.010000 26.010000
671 1 0.000000 24.000000 28.000000
672 2 0.010000 24.010000 28.010000
673 3 2.000000 26.000000 30.000000
674 4 2.010000 26.010000 30.010000
675 5 2.000000 26.000000 28.000000
676 6 2.010000 26.010000 28.010000
677 5 0.000000 26.000000 30.000000
678 6 0.010000 26.010000 30.010000
679 5 2.000000 24.000000 30.000000
680 6 2.010000 24.010000 30.010000
681 1 0.000000 24.000000 32.000000
682 2 0.010000 24.010000 32.010000
683 3 2.000000 26.000000 34.000000
684 4 2.010000 26.010000 34.010000
685 5 2.000000 26.000000 32.000000
686 6 2.010000 26.010000 32.010000
687 5 0.000000 26.000000 34.000000
688 6 0.010000 26.010000 34.010000
689 5 2.000000 24.000000 34.000000
690 6 2.010000 24.010000 34.010000
691 1 0.000000 24.000000 36.000000
692 2 0.010000 24.010000 36.010000
693 3 2.000000 26.000000 38.000000
694 4 2.010000 26.010000 38.010000
695 5 2.000000 26.000000 36.000000
696 6 2.010000 26.010000 36.010000
697 5 0.000000 26.000000 38.000000
698 6 0.010000 26.010000 38.010000
699 5 2.000000 24.000000 38.000000
700 6 2.010000 24.010000 38.010000
701 1 0.000000 28.000000 0.000000
702 2 0.010000 28.010000 0.010000
703 3 2.000000 30.000000 2.000000
704 4 2.010000 30.010000 2.010000
705 5 2.000000 30.000000 0.000000
706 6 2.010000 30.010000 0.010000
707 5 0.000000 30.000000 2.000000
708 6 0.010000 30.010000 2.010000
709 5 2.000000 28.000000 2.000000
710 6 2.010000 28.010000 2.010000
711 1 0.000000 28.000000 4.000000
712 2 0.010000 28.010000 4.010000
713 3 2.000000 30.000000 6.000000
714 4 2.010000 30.010000 6.010000
715 5 2.000000 30.000000 4.000000
716 6 2.010000 30.010000 4.010000
717 5 0.000000 30.000000 6.000000
718 6 0.010000 30.010000 6.010000
719 5 2.000000 28.000000 6.000000
720 6 2.010000 28.010000 6.010000
721 1 0.000000 28.000000 8.000000
722 2 0.010000 28.010000 8.010000
723 3 2.000000 30.000000 10.000000
724 4 2.010000 30.010000 10.010000
725 5 2.000000 30.000000 8.000000
726 6 2.010000 30.010000 8.010000
727 5 0.000000 30.000000 10.000000
728 6 0.010000 30.010000 10.010000
729 5 2.000000 28.000000 10.000000
730 6 2.010000 28.010000 10.010000
731 1 0.000000 28.000000 12.000000
732 2 0.010000 28.010000 12.010000
733 3 2.000000 30.000000 14.000000
734 4 2.010000 30.010000 14.010000
735 5 2.000000 30.000000 12.000000
736 6 2.010000 30.010000 12.010000
737 5 0.000000 30.000000 14.000000
738 6 0.010000 30.010000 14.010000
739 5 2.000000 28.000000 14.000000
740 6 2.010000 28.010000 14.010000
741 1 0.000000 28.000000 16.000000
742 2 0.010000 28.010000 16.010000
743 3 2.000000 30.000000 18.000000
744 4 2.010000 30.010000 18.010000
745 5 2.000000 30.000000 16.000000
746 6 2.010000 30.010000 16.010000
747 5 0.000000 30.000000 18.000000
748 6 0.010000 30.010000 18.010000
749 5 2.000000 28.000000 18.000000
750 6 2.010000 28.010000 18.010000
751 1 0.000000 28.000000 20.000000
752 2 0.010000 28.010000 20.010000
753 3 2.000000 30.000000 22.000000
754 4 2.010000 30.010000 22.010000
755 5 2.000000 30.000000 20.000000
756 6 2.010000 30.010000 20.010000
757 5 0.000000 30.000000 22.000000
758 6 0.010000 30.010000 22.010000
759 5 2.000000 28.000000 22.000000
760 6 2.010000 28.010000 22.010000
761 1 0.000000 28.000000 24.000000
762 2 0.010000 28.010000 24.010000
763 3 2.000000 30.000000 26.000000
764 4 2.010000 30.010000 26.010000
765 5 2.000000 30.000000 24.000000
766 6 2.010000 30.010000 24.010000
767 5 0.000000 30.000000 26.000000
768 6 0.010000 30.010000 26.010000
769 5 2.000000 28.000000 26.000000
770 6 2.010000 28.010000 26.010000
771 1 0.000000 28.000000 28.000000
772 2 0.010000 28.010000 28.010000
773 3 2.000000 30.000000 30.000000
774 4 2.010000 30.010000 30.010000
775 5 2.000000 30.000000 28.000000
776 6 2.010000 30.010000 28.010000
777 5 0.000000 30.000000 30.000000
778 6 0.010000 30.010000 30.010000
779 5 2.000000 28.000000 30.000000
780 6 2.010000 28.010000 30.010000
781 1 0.000000 28.000000 32.000000
782 2 0.010000 28.010000 32.010000
783 3 2.000000 30.000000 34.000000
784 4 2.010000 30.010000 34.010000
785 5 2.000000 30.000000 32.000000
786 6 2.010000 30.010000 32.010000
787 5 0.000000 30.000000 34.000000
788 6 0.010000 30.010000 34.010000
789 5 2.000000 28.000000 34.000000
790 6 2.010000 28.010000 34.010000
791 1 0.000000 28.000000 36.000000
792 2 0.010000 28.010000 36.010000
793 3 2.000000 30.000000 38.000000
794 4 2.010000 30.010000 38.010000
795 5 2.000000 30.000000 36.000000
796 6 2.010000 30.010000 36.010000
797 5 0.000000 30.000000 38.000000
798 6 0.010000 30.010000 38.010000
799 5 2.000000 28.000000 38.000000
800 6 2.010000 28.010000 38.010000
801 1 0.000000 32.000000 0.000000
802 2 0.010000 32.010000 0.010000
803 3 2.000000 34.000000 2.000000
804 4 2.010000 34.010000 2.010000
805 5 2.000000 34.000000 0.000000
806 6 2.010000 34.010000 0.010000
807 5 0.000000 34.000000 2.000000
808 6 0.010000 34.010000 2.010000
809 5 2.000000 32.000000 2.000000
810 6 2.010000 32.010000 2.010000
811 1 0.000000 32.000000 4.000000
812 2 0.010000 32.010000 4.010000
813 3 2.000000 34.000000 6.000000
814 4 2.010000 34.010000 6.010000
815 5 2.000000 34.000000 4.000000
816 6 2.010000 34.010000 4.010000
817 5 0.000000 34.000000 6.000000
818 6 0.010000 34.010000 6.010000
819 5 2.000000 32.000000 6.000000
820 6 2.010000 32.010000 6.010000
821 1 0.000000 32.000000 8.000000
822 2 0.010000 32.010000 8.010000
823 3 2.000000 34.000000 10.000000
824 4 2.010000 34.010000 10.010000
825 5 2.000000 34.000000 8.000000
826 6 2.010000 34.010000 8.010000
827 5 0.000000 34.000000 10.000000
828 6 0.010000 34.010000 10.010000
829 5 2.000000 32.000000 10.000000
830 6 2.010000 32.010000 10.010000
831 1 0.000000 32.000000 12.000000
832 2 0.010000 32.010000 12.010000
833 3 2.000000 34.000000 14.000000
834 4 2.010000 34.010000 14.010000
835 5 2.000000 34.000000 12.000000
836 6 2.010000 34.010000 12.010000
837 5 0.000000 34.000000 14.000000
838 6 0.010000 34.010000 14.010000
839 5 2.000000 32.000000 14.000000
840 6 2.010000 32.010000 14.010000
841 1 0.000000 32.000000 16.000000
842 2 0.010000 32.010000 16.010000
843 3 2.000000 34.000000 18.000000
844 4 2.010000 34.010000 18.010000
845 5 2.000000 34.000000 16.000000
846 6 2.010000 34.010000 16.010000
847 5 0.000000 34.000000 18.000000
848 6 0.010000 34.010000 18.010000
849 5 2.000000 32.000000 18.000000
850 6 2.010000 32.010000 18.010000
851 1 0.000000 32.000000 20.000000
852 2 0.010000 32.010000 20.010000
853 3 2.000000 34.000000 22.000000
854 4 2.010000 34.010000 22.010000
855 5 2.000000 34.000000 20.000000
856 6 2.010000 34.010000 20.010000
857 5 0.000000 34.000000 22.000000
858 6 0.010000 34.010000 22.010000
859 5 2.000000 32.000000 22.000000
860 6 2.010000 32.010000 22.010000
861 1 0.000000 32.000000 24.000000
862 2 0.010000 32.010000 24.010000
863 3 2.000000 34.000000 26.000000
864 4 2.010000 34.010000 26.010000
865 5 2.000000 34.000000 24.000000
866 6 2.010000 34.010000 24.010000
867 5 0.000000 34.000000 26.000000
868 6 0.010000 34.010000 26.010000
869 5 2.000000 32.000000 26.000000