ITEM: TIMESTEP
0
ITEM: NUMBER OF ATOMS
10000
ITEM: BOX BOUNDS pp pp pp
0.0000000000000000e+00 4.0000000000000000e+01
0.0000000000000000e+00 4.0000000000000000e+01
0.0000000000000000e+00 4.0000000000000000e+01
ITEM: ATOMS id type x y z
1 1 0 0 0
2 2 0.01 0.01 0.01
3 3 2 2 2
4 4 2.01 2.01 2.01
5 5 2 2 0
6 6 2.01 2.01 0.01
7 5 0 2 2
8 6 0.01 2.01 2.01
9 5 2 0 2
10 6 2.01 0.01 2.01
11 1 0 0 4
12 2 0.01 0.01 4.01
13 3 2 2 6
14 4 2.01 2.01 6.01
15 5 2 2 4
16 6 2.01 2.01 4.01
17 5 0 2 6
18 6 0.01 2.01 6.01
19 5 2 0 6
20 6 2.01 0.01 6.01
21 1 0 0 8
22 2 0.01 0.01 8.01
23 3 2 2 10
24 4 2.01 2.01 10.01
25 5 2 2 8
26 6 2.01 2.01 8.01
27 5 0 2 10
28 6 0.01 2.01 10.01
29 5 2 0 10
30 6 2.01 0.01 10.01
31 1 0 0 12
32 2 0.01 0.01 12.01
33 3 2 2 14
34 4 2.01 2.01 14.01
35 5 2 2 12
36 6 2.01 2.01 12.01
37 5 0 2 14
38 6 0.01 2.01 14.01
39 5 2 0 14
40 6 2.01 0.01 14.01
41 1 0 0 16
42 2 0.01 0.01 16.01
43 3 2 2 18
44 4 2.01 2.01 18.01
45 5 2 2 16
46 6 2.01 2.01 16.01
47 5 0 2 18
48 6 0.01 2.01 18.01
49 5 2 0 18
50 6 2.01 0.01 18.01
51 1 0 0 20
52 2 0.01 0.01 20.01
53 3 2 2 22
54 4 2.01 2.01 22.01
55 5 2 2 20
56 6 2.01 2.01 20.01
57 5 0 2 22
58 6 0.01 2.01 22.01
59 5 2 0 22
60 6 2.01 0.01 22.01
61 1 0 0 24
62 2 0.01 0.01 24.01
63 3 2 2 26
64 4 2.01 2.01 26.01
65 5 2 2 24
66 6 2.01 2.01 24.01
67 5 0 2 26
68 6 0.01 2.01 26.01
69 5 2 0 26
70 6 2.01 0.01 26.01
71 1 0 0 28
72 2 0.01 0.01 28.01
73 3 2 2 30
74 4 2.01 2.01 30.01
75 5 2 2 28
76 6 2.01 2.01 28.01
77 5 0 2 30
78 6 0.01 2.01 30.01
79 5 2 0 30
80 6 2.01 0.01 30.01
81 1 0 0 32
82 2 0.01 0.01 32.01
83 3 2 2 34
84 4 2.01 2.01 34.01
85 5 2 2 32
86 6 2.01 2.01 32.01
87 5 0 2 34
88 6 0.01 2.01 34.01
89 5 2 0 34
90 6 2.01 0.01 34.01
91 1 0 0 36
92 2 0.01 0.01 36.01
93 3 2 2 38
94 4 2.01 2.01 38.01
95 5 2 2 36
96 6 2.01 2.01 36.01
97 5 0 2 38
98 6 0.01 2.01 38.01
99 5 2 0 38
100 6 2.01 0.01 38.01
101 1 0 4 0
102 2 0.01 4.01 0.01
103 3 2 6 2
104 4 2.01 6.01 2.01
105 5 2 6 0
106 6 2.01 6.01 0.01
107 5 0 6 2
108 6 0.01 6.01 2.01
109 5 2 4 2
110 6 2.01 4.01 2.01
111 1 0 4 4
112 2 0.01 4.01 4.01
113 3 2 6 6
114 4 2.01 6.01 6.01
115 5 2 6 4
116 6 2.01 6.01 4.01
117 5 0 6 6
118 6 0.01 6.01 6.01
119 5 2 4 6
120 6 2.01 4.01 6.01
121 1 0 4 8
122 2 0.01 4.01 8.01
123 3 2 6 10
124 4 2.01 6.01 10.01
125 5 2 6 8
126 6 2.01 6.01 8.01
127 5 0 6 10
128 6 0.01 6.01 10.01
129 5 2 4 10
130 6 2.01 4.01 10.01
131 1 0 4 12
132 2 0.01 4.01 12.01
133 3 2 6 14
134 4 2.01 6.01 14.01
135 5 2 6 12
136 6 2.01 6.01 12.01
137 5 0 6 14
138 6 0.01 6.01 14.01
139 5 2 4 14
140 6 2.01 4.01 14.01
141 1 0 4 16
142 2 0.01 4.01 16.01
143 3 2 6 18
144 4 2.01 6.01 18.01
145 5 2 6 16
146 6 2.01 6.01 16.01
147 5 0 6 18
148 6 0.01 6.01 18.01
149 5 2 4 18
150 6 2.01 4.01 18.01
151 1 0 4 20
152 2 0.01 4.01 20.01
153 3 2 6 22
154 4 2.01 6.01 22.01
155 5 2 6 20
156 6 2.01 6.01 20.01
157 5 0 6 22
158 6 0.01 6.01 22.01
159 5 2 4 22
160 6 2.01 4.01 22.01
161 1 0 4 24
162 2 0.01 4.01 24.01
163 3 2 6 26
164 4 2.01 6.01 26.01
165 5 2 6 24
166 6 2.01 6.01 24.01
167 5 0 6 26
168 6 0.01 6.01 26.01
169 5 2 4 26
170 6 2.01 4.01 26.01
171 1 0 4 28
172 2 0.01 4.01 28.01
173 3 2 6 30
174 4 2.01 6.01 30.01
175 5 2 6 28
176 6 2.01 6.01 28.01
177 5 0 6 30
178 6 0.01 6.01 30.01
179 5 2 4 30
180 6 2.01 4.01 30.01
181 1 0 4 32
182 2 0.01 4.01 32.01
183 3 2 6 34
184 4 2.01 6.01 34.01
185 5 2 6 32
186 6 2.01 6.01 32.01
187 5 0 6 34
188 6 0.01 6.01 34.01
189 5 2 4 34
190 6 2.01 4.01 34.01
191 1 0 4 36
192 2 0.01 4.01 36.01
193 3 2 6 38
194 4 2.01 6.01 38.01
195 5 2 6 36
196 6 2.01 6.01 36.01
197 5 0 6 38
198 6 0.01 6.01 38.01
199 5 2 4 38
200 6 2.01 4.01 38.01
201 1 0 8 0
202 2 0.01 8.01 0.01
203 3 2 10 2
204 4 2.01 10.01 2.01
205 5 2 10 0
206 6 2.01 10.01 0.01
207 5 0 10 2
208 6 0.01 10.01 2.01
209 5 2 8 2
210 6 2.01 8.01 2.01
211 1 0 8 4
212 2 0.01 8.01 4.01
213 3 2 10 6
214 4 2.01 10.01 6.01
215 5 2 10 4
216 6 2.01 10.01 4.01
217 5 0 10 6
218 6 0.01 10.01 6.01
219 5 2 8 6
220 6 2.01 8.01 6.01
221 1 0 8 8
222 2 0.01 8.01 8.01
223 3 2 10 10
224 4 2.01 10.01 10.01
225 5 2 10 8
226 6 2.01 10.01 8.01
227 5 0 10 10
228 6 0.01 10.01 10.01
229 5 2 8 10
230 6 2.01 8.01 10.01
231 1 0 8 12
232 2 0.01 8.01 12.01
233 3 2 10 14
234 4 2.01 10.01 14.01
235 5 2 10 12
236 6 2.01 10.01 12.01
237 5 0 10 14
238 6 0.01 10.01 14.01
239 5 2 8 14
240 6 2.01 8.01 14.01
241 1 0 8 16
242 2 0.01 8.01 16.01
243 3 2 10 18
244 4 2.01 10.01 18.01
245 5 2 10 16
246 6 2.01 10.01 16.01
247 5 0 10 18
248 6 0.01 10.01 18.01
249 5 2 8 18
250 6 2.01 8.01 18.01
251 1 0 8 20
252 2 0.01 8.01 20.01
253 3 2 10 22
254 4 2.01 10.01 22.01
255 5 2 10 20
256 6 2.01 10.01 20.01
257 5 0 10 22
258 6 0.01 10.01 22.01
259 5 2 8 22
260 6 2.01 8.01 22.01
261 1 0 8 24
262 2 0.01 8.01 24.01
263 3 2 10 26
264 4 2.01 10.01 26.01
265 5 2 10 24
266 6 2.01 10.01 24.01
267 5 0 10 26
268 6 0.01 10.01 26.01
269 5 2 8 26
270 6 2.01 8.01 26.01
271 1 0 8 28
272 2 0.01 8.01 28.01
273 3 2 10 30
274 4 2.01 10.01 30.01
275 5 2 10 28
276 6 2.01 10.01 28.01
277 5 0 10 30
278 6 0.01 10.01 30.01
279 5 2 8 30
280 6 2.01 8.01 30.01
281 1 0 8 32
282 2 0.01 8.01 32.01
283 3 2 10 34
284 4 2.01 10.01 34.01
285 5 2 10 32
286 6 2.01 10.01 32.01
287 5 0 10 34
288 6 0.01 10.01 34.01
289 5 2 8 34
290 6 2.01 8.01 34.01
291 1 0 8 36
292 2 0.01 8.01 36.01
293 3 2 10 38
294 4 2.01 10.01 38.01
295 5 2 10 36
296 6 2.01 10.01 36.01
297 5 0 10 38
298 6 0.01 10.01 38.01
299 5 2 8 38
300 6 2.01 8.01 38.01
301 1 0 12 0
302 2 0.01 12.01 0.01
303 3 2 14 2
304 4 2.01 14.01 2.01
305 5 2 14 0
306 6 2.01 14.01 0.01
307 5 0 14 2
308 6 0.01 14.01 2.01
309 5 2 12 2
310 6 2.01 12.01 2.01
311 1 0 12 4
312 2 0.01 12.01 4.01
313 3 2 14 6
314 4 2.01 14.01 6.01
315 5 2 14 4
316 6 2.01 14.01 4.01
317 5 0 14 6
318 6 0.01 14.01 6.01
319 5 2 12 6
320 6 2.01 12.01 6.01
321 1 0 12 8
322 2 0.01 12.01 8.01
323 3 2 14 10
324 4 2.01 14.01 10.01
325 5 2 14 8
326 6 2.01 14.01 8.01
327 5 0 14 10
328 6 0.01 14.01 10.01
329 5 2 12 10
330 6 2.01 12.01 10.01
331 1 0 12 12
332 2 0.01 12.01 12.01
333 3 2 14 14
334 4 2.01 14.01 14.01
335 5 2 14 12
336 6 2.01 14.01 12.01
337 5 0 14 14
338 6 0.01 14.01 14.01
339 5 2 12 14
340 6 2.01 12.01 14.01
341 1 0 12 16
342 2 0.01 12.01 16.01
343 3 2 14 18
344 4 2.01 14.01 18.01
345 5 2 14 16
346 6 2.01 14.01 16.01
347 5 0 14 18
348 6 0.01 14.01 18.01
349 5 2 12 18
350 6 2.01 12.01 18.01
351 1 0 12 20
352 2 0.01 12.01 20.01
353 3 2 14 22
354 4 2.01 14.01 22.01
355 5 2 14 20
356 6 2.01 14.01 20.01
357 5 0 14 22
358 6 0.01 14.01 22.01
359 5 2 12 22
360 6 2.01 12.01 22.01
361 1 0 12 24
362 2 0.01 12.01 24.01
363 3 2 14 26
364 4 2.01 14.01 26.01
365 5 2 14 24
366 6 2.01 14.01 24.01
367 5 0 14 26
368 6 0.01 14.01 26.01
369 5 2 12 26
370 6 2.01 12.01 26.01
371 1 0 12 28
372 2 0.01 12.01 28.01
373 3 2 14 30
374 4 2.01 14.01 30.01
375 5 2 14 28
376 6 2.01 14.01 28.01
377 5 0 14 30
378 6 0.01 14.01 30.01
379 5 2 12 30
380 6 2.01 12.01 30.01
381 1 0 12 32
382 2 0.01 12.01 32.01
383 3 2 14 34
384 4 2.01 14.01 34.01
385 5 2 14 32
386 6 2.01 14.01 32.01
387 5 0 14 34
388 6 0.01 14.01 34.01
389 5 2 12 34
390 6 2.01 12.01 34.01
391 1 0 12 36
392 2 0.01 12.01 36.01
393 3 2 14 38
394 4 2.01 14.01 38.01
395 5 2 14 36
396 6 2.01 14.01 36.01
397 5 0 14 38
398 6 0.01 14.01 38.01
399 5 2 12 38
400 6 2.01 12.01 38.01
401 1 0 16 0
402 2 0.01 16.01 0.01
403 3 2 18 2
404 4 2.01 18.01 2.01
405 5 2 18 0
406 6 2.01 18.01 0.01
407 5 0 18 2
408 6 0.01 18.01 2.01
409 5 2 16 2
410 6 2.01 16.01 2.01
411 1 0 16 4
412 2 0.01 16.01 4.01
413 3 2 18 6
414 4 2.01 18.01 6.01
415 5 2 18 4
416 6 2.01 18.01 4.01
417 5 0 18 6
418 6 0.01 18.01 6.01
419 5 2 16 6
420 6 2.01 16.01 6.01
421 1 0 16 8
422 2 0.01 16.01 8.01
423 3 2 18 10
424 4 2.01 18.01 10.01
425 5 2 18 8
426 6 2.01 18.01 8.01
427 5 0 18 10
428 6 0.01 18.01 10.01
429 5 2 16 10
430 6 2.01 16.01 10.01
431 1 0 16 12
432 2 0.01 16.01 12.01
433 3 2 18 14
434 4 2.01 18.01 14.01
435 5 2 18 12
436 6 2.01 18.01 12.01
437 5 0 18 14
438 6 0.01 18.01 14.01
439 5 2 16 14
440 6 2.01 16.01 14.01
441 1 0 16 16
442 2 0.01 16.01 16.01
443 3 2 18 18
444 4 2.01 18.01 18.01
445 5 2 18 16
446 6 2.01 18.01 16.01
447 5 0 18 18
448 6 0.01 18.01 18.01
449 5 2 16 18
450 6 2.01 16.01 18.01
451 1 0 16 20
452 2 0.01 16.01 20.01
453 3 2 18 22
454 4 2.01 18.01 22.01
455 5 2 18 20
456 6 2.01 18.01 20.01
457 5 0 18 22
458 6 0.01 18.01 22.01
459 5 2 16 22
460 6 2.01 16.01 22.01
461 1 0 16 24
462 2 0.01 16.01 24.01
463 3 2 18 26
464 4 2.01 18.01 26.01
465 5 2 18 24
466 6 2.01 18.01 24.01
467 5 0 18 26
468 6 0.01 18.01 26.01
469 5 2 16 26
470 6 2.01 16.01 26.01
471 1 0 16 28
472 2 0.01 16.01 28.01
473 3 2 18 30
474 4 2.01 18.01 30.01
475 5 2 18 28
476 6 2.01 18.01 28.01
477 5 0 18 30
478 6 0.01 18.01 30.01
479 5 2 16 30
480 6 2.01 16.01 30.01
481 1 0 16 32
482 2 0.01 16.01 32.01
483 3 2 18 34
484 4 2.01 18.01 34.01
485 5 2 18 32
486 6 2.01 18.01 32.01
487 5 0 18 34
488 6 0.01 18.01 34.01
489 5 2 16 34
490 6 2.01 16.01 34.01
491 1 0 16 36
492 2 0.01 16.01 36.01
493 3 2 18 38
494 4 2.01 18.01 38.01
495 5 2 18 36
496 6 2.01 18.01 36.01
497 5 0 18 38
498 6 0.01 18.01 38.01
499 5 2 16 38
500 6 2.01 16.01 38.01
501 1 0 20 0
502 2 0.01 20.01 0.01
503 3 2 22 2
504 4 2.01 22.01 2.01
505 5 2 22 0
506 6 2.01 22.01 0.01
507 5 0 22 2
508 6 0.01 22.01 2.01
509 5 2 20 2
510 6 2.01 20.01 2.01
511 1 0 20 4
512 2 0.01 20.01 4.01
513 3 2 22 6
514 4 2.01 22.01 6.01
515 5 2 22 4
516 6 2.01 22.01 4.01
517 5 0 22 6
518 6 0.01 22.01 6.01
519 5 2 20 6
520 6 2.01 20.01 6.01
521 1 0 20 8
522 2 0.01 20.01 8.01
523 3 2 22 10
524 4 2.01 22.01 10.01
525 5 2 22 8
526 6 2.01 22.01 8.01
527 5 0 22 10
528 6 0.01 22.01 10.01
529 5 2 20 10
530 6 2.01 20.01 10.01
531 1 0 20 12
532 2 0.01 20.01 12.01
533 3 2 22 14
534 4 2.01 22.01 14.01
535 5 2 22 12
536 6 2.01 22.01 12.01
537 5 0 22 14
538 6 0.01 22.01 14.01
539 5 2 20 14
540 6 2.01 20.01 14.01
541 1 0 20 16
542 2 0.01 20.01 16.01
543 3 2 22 18
544 4 2.01 22.01 18.01
545 5 2 22 16
546 6 2.01 22.01 16.01
547 5 0 22 18
548 6 0.01 22.01 18.01
549 5 2 20 18
550 6 2.01 20.01 18.01
551 1 0 20 20
552 2 0.01 20.01 20.01
553 3 2 22 22
554 4 2.01 22.01 22.01
555 5 2 22 20
556 6 2.01 22.01 20.01
557 5 0 22 22
558 6 0.01 22.01 22.01
559 5 2 20 22
560 6 2.01 20.01 22.01
561 1 0 20 24
562 2 0.01 20.01 24.01
563 3 2 22 26
564 4 2.01 22.01 26.01
565 5 2 22 24
566 6 2.01 22.01 24.01
567 5 0 22 26
568 6 0.01 22.01 26.01
569 5 2 20 26
570 6 2.01 20.01 26.01
571 1 0 20 28
572 2 0.01 20.01 28.01
573 3 2 22 30
574 4 2.01 22.01 30.01
575 5 2 22 28
576 6 2.01 22.01 28.01
577 5 0 22 30
578 6 0.01 22.01 30.01
579 5 2 20 30
580 6 2.01 20.01 30.01
581 1 0 20 32
582 2 0.01 20.01 32.01
583 3 2 22 34
584 4 2.01 22.01 34.01
585 5 2 22 32
586 6 2.01 22.01 32.01
587 5 0 22 34
588 6 0.01 22.01 34.01
589 5 2 20 34
590 6 2.01 20.01 34.01
591 1 0 20 36
592 2 0.01 20.01 36.01
593 3 2 22 38
594 4 2.01 22.01 38.01
595 5 2 22 36
596 6 2.01 22.01 36.01
597 5 0 22 38
598 6 0.01 22.01 38.01
599 5 2 20 38
600 6 2.01 20.01 38.01
601 1 0 24 0
602 2 0.01 24.01 0.01
603 3 2 26 2
604 4 2.01 26.01 2.01
605 5 2 26 0
606 6 2.01 26.01 0.01
607 5 0 26 2
608 6 0.01 26.01 2.01
609 5 2 24 2
610 6 2.01 24.01 2.01
611 1 0 24 4
612 2 0.01 24.01 4.01
613 3 2 26 6
614 4 2.01 26.01 6.01
615 5 2 26 4
616 6 2.01 26.01 4.01
617 5 0 26 6
618 6 0.01 26.01 6.01
619 5 2 24 6
620 6 2.01 24.01 6.01
621 1 0 24 8
622 2 0.01 24.01 8.01
623 3 2 26 10
624 4 2.01 26.01 10.01
625 5 2 26 8
626 6 2.01 26.01 8.01
627 5 0 26 10
628 6 0.01 26.01 10.01
629 5 2 24 10
630 6 2.01 24.01 10.01
631 1 0 24 12
632 2 0.01 24.01 12.01
633 3 2 26 14
634 4 2.01 26.01 14.01
635 5 2 26 12
636 6 2.01 26.01 12.01
637 5 0 26 14
638 6 0.01 26.01 14.01
639 5 2 24 14
640 6 2.01 24.01 14.01
641 1 0 24 16
642 2 0.01 24.01 16.01
643 3 2 26 18
644 4 2.01 26.01 18.01
645 5 2 26 16
646 6 2.01 26.01 16.01
647 5 0 26 18
648 6 0.01 26.01 18.01
649 5 2 24 18
650 6 2.01 24.01 18.01
651 1 0 24 20
652 2 0.01 24.01 20.01
653 3 2 26 22
654 4 2.01 26.01 22.01
655 5 2 26 20
656 6 2.01 26.01 20.01
657 5 0 26 22
658 6 0.01 26.01 22.01
659 5 2 24 22
660 6 2.01 24.01 22.01
661 1 0 24 24
662 2 0.01 24.01 24.01
663 3 2 26 26
664 4 2.01 26.01 26.01
665 5 2 26 24
666 6 2.01 26.01 24.01
667 5 0 26 26
668 6 0.01 26.01 26.01
669 5 2 24 26
670 6 2.01 24.01 26.01
671 1 0 24 28
672 2 0.01 24.01 28.01
673 3 2 26 30
674 4 2.01 26.01 30.01
675 5 2 26 28
676 6 2.01 26.01 28.01
677 5 0 26 30
678 6 0.01 26.01 30.01
679 5 2 24 30
680 6 2.01 24.01 30.01
681 1 0 24 32
682 2 0.01 24.01 32.01
683 3 2 26 34
684 4 2.01 26.01 34.01
685 5 2 26 32
686 6 2.01 26.01 32.01
687 5 0 26 34
688 6 0.01 26.01 34.01
689 5 2 24 34
690 6 2.01 24.01 34.01
691 1 0 24 36
692 2 0.01 24.01 36.01
693 3 2 26 38
694 4 2.01 26.01 38.01
695 5 2 26 36
696 6 2.01 26.01 36.01
697 5 0 26 38
698 6 0.01 26.01 38.01
699 5 2 24 38
700 6 2.01 24.01 38.01
701 1 0 28 0
702 2 0.01 28.01 0.01
703 3 2 30 2
704 4 2.01 30.01 2.01
705 5 2 30 0
706 6 2.01 30.01 0.01
707 5 0 30 2
708 6 0.01 30.01 2.01
709 5 2 28 2
710 6 2.01 28.01 2.01
711 1 0 28 4
712 2 0.01 28.01 4.01
713 3 2 30 6
714 4 2.01 30.01 6.01
715 5 2 30 4
716 6 2.01 30.01 4.01
717 5 0 30 6
718 6 0.01 30.01 6.01
719 5 2 28 6
720 6 2.01 28.01 6.01
721 1 0 28 8
722 2 0.01 28.01 8.01
723 3 2 30 10
724 4 2.01 30.01 10.01
725 5 2 30 8
726 6 2.01 30.01 8.01
727 5 0 30 10
728 6 0.01 30.01 10.01
729 5 2 28 10
730 6 2.01 28.01 10.01
731 1 0 28 12
732 2 0.01 28.01 12.01
733 3 2 30 14
734 4 2.01 30.01 14.01
735 5 2 30 12
736 6 2.01 30.01 12.01
737 5 0 30 14
738 6 0.01 30.01 14.01
739 5 2 28 14
740 6 2.01 28.01 14.01
741 1 0 28 16
742 2 0.01 28.01 16.01
743 3 2 30 18
744 4 2.01 30.01 18.01
745 5 2 30 16
746 6 2.01 30.01 16.01
747 5 0 30 18
748 6 0.01 30.01 18.01
749 5 2 28 18
750 6 2.01 28.01 18.01
751 1 0 28 20
752 2 0.01 28.01 20.01
753 3 2 30 22
754 4 2.01 30.01 22.01
755 5 2 30 20
756 6 2.01 30.01 20.01
757 5 0 30 22
758 6 0.01 30.01 22.01
759 5 2 28 22
760 6 2.01 28.01 22.01
761 1 0 28 24
762 2 0.01 28.01 24.01
763 3 2 30 26
764 4 2.01 30.01 26.01
765 5 2 30 24
766 6 2.01 30.01 24.01
767 5 0 30 26
768 6 0.01 30.01 26.01
769 5 2 28 26
770 6 2.01 28.01 26.01
771 1 0 28 28
772 2 0.01 28.01 28.01
773 3 2 30 30
774 4 2.01 30.01 30.01
775 5 2 30 28
776 6 2.01 30.01 28.01
777 5 0 30 30
778 6 0.01 30.01 30.01
779 5 2 28 30
780 6 2.01 28.01 30.01
781 1 0 28 32
782 2 0.01 28.01 32.01
783 3 2 30 34
784 4 2.01 30.01 34.01
785 5 2 30 32
786 6 2.01 30.01 32.01
787 5 0 30 34
788 6 0.01 30.01 34.01
789 5 2 28 34
790 6 2.01 28.01 34.01
791 1 0 28 36
792 2 0.01 28.01 36.01
793 3 2 30 38
794 4 2.01 30.01 38.01
795 5 2 30 36
796 6 2.01 30.01 36.01
797 5 0 30 38
798 6 0.01 30.01 38.01
799 5 2 28 38
800 6 2.01 28.01 38.01
801 1 0 32 0
802 2 0.01 32.01 0.01
803 3 2 34 2
804 4 2.01 34.01 2.01
805 5 2 34 0
806 6 2.01 34.01 0.01
807 5 0 34 2
808 6 0.01 34.01 2.01
809 5 2 32 2
810 6 2.01 32.01 2.01
811 1 0 32 4
812 2 0.01 32.01 4.01
813 3 2 34 6
814 4 2.01 34.01 6.01
815 5 2 34 4
816 6 2.01 34.01 4.01
817 5 0 34 6
818 6 0.01 34.01 6.01
819 5 2 32 6
820 6 2.01 32.01 6.01
821 1 0 32 8
822 2 0.01 32.01 8.01
823 3 2 34 10
824 4 2.01 34.01 10.01
825 5 2 34 8
826 6 2.01 34.01 8.01
827 5 0 34 10
828 6 0.01 34.01 10.01
829 5 2 32 10
830 6 2.01 32.01 10.01
831 1 0 32 12
832 2 0.01 32.01 12.01
833 3 2 34 14
834 4 2.01 34.01 14.01
835 5 2 34 12
836 6 2.01 34.01 12.01
837 5 0 34 14
838 6 0.01 34.01 14.01
839 5 2 32 14
840 6 2.01 32.01 14.01
841 1 0 32 16
842 2 0.01 32.01 16.01
843 3 2 34 18
844 4 2.01 34.01 18.01
845 5 2 34 16
846 6 2.01 34.01 16.01
847 5 0 34 18
848 6 0.01 34.01 18.01
849 5 2 32 18
850 6 2.01 32.01 18.01
851 1 0 32 20
852 2 0.01 32.01 20.01
853 3 2 34 22
854 4 2.01 34.01 22.01
855 5 2 34 20
856 6 2.01 34.01 20.01
857 5 0 34 22
858 6 0.01 34.01 22.01
859 5 2 32 22
860 6 2.01 32.01 22.01
861 1 0 32 24
862 2 0.01 32.01 24.01
863 3 2 34 26
864 4 2.01 34.01 26.01
865 5 2 34 24
866 6 2.01 34.01 24.01
867 5 0 34 26
868 6 0.01 34.01 26.01
869 5 2 32 26
870 6 2.01 32.01 26.01
871 1 0 32 28
872 2 0.01 32.01 28.01
873 3 2 34 30
874 4 2.01 34.01 30.01
875 5 2 34 28
876 6 2.01 34.01 28.01
877 5 0 34 30
878 6 0.01 34.01 30.01
879 5 2 32 30
880 6 2.01 32.01 30.01
881 1 0 32 32
882 2 0.01 32.01 32.01
883 3 2 34 34
884 4 2.01 34.01 34.01
885 5 2 34 32
886 6 2.01 34.01 32.01
887 5 0 34 34
888 6 0.01 34.01 34.01
889 5 2 32 34
890 6 2.01 32.01 34.01
891 1 0 32 36
892 2 0.01 32.01 36.01
893 3 2 34 38
894 4 2.01 34.01 38.01
895 5 2 34 36
896 6 2.01 34.01 36.01
897 5 0 34 38
898 6 0.01 34.01 38.01
899 5 2 32 38
900 6 2.01 32.01 38.01
901 1 0 36 0
902 2 0.01 36.01 0.01
903 3 2 38 2
904 4 2.01 38.01 2.01
905 5 2 38 0
906 6 2.01 38.01 0.01
907 5 0 38 2
908 6 0.01 38.01 2.01
909 5 2 36 2
910 6 2.01 36.01 2.01
911 1 0 36 4
912 2 0.01 36.01 4.01
913 3 2 38 6
914 4 2.01 38.01 6.01
915 5 2 38 4
916 6 2.01 38.01 4.01
917 5 0 38 6
918 6 0.01 38.01 6.01
919 5 2 36 6
920 6 2.01 36.01 6.01
921 1 0 36 8
922 2 0.01 36.01 8.01
923 3 2 38 10
924 4 2.01 38.01 10.01
925 5 2 38 8
926 6 2.01 38.01 8.01
927 5 0 38 10
928 6 0.01 38.01 10.01
929 5 2 36 10
930 6 2.01 36.01 10.01
931 1 0 36 12
932 2 0.01 36.01 12.01
933 3 2 38 14
934 4 2.01 38.01 14.01
935 5 2 38 12
936 6 2.01 38.01 12.01
937 5 0 38 14
938 6 0.01 38.01 14.01
939 5 2 36 14
940 6 2.01 36.01 14.01
941 1 0 36 16
942 2 0.01 36.01 16.01
943 3 2 38 18
944 4 2.01 38.01 18.01
945 5 2 38 16
946 6 2.01 38.01 16.01
947 5 0 38 18
948 6 0.01 38.01 18.01
949 5 2 36 18
950 6 2.01 36.01 18.01
951 1 0 36 20
952 2 0.01 36.01 20.01
953 3 2 38 22
954 4 2.01 38.01 22.01
955 5 2 38 20
956 6 2.01 38.01 20.01
957 5 0 38 22
958 6 0.01 38.01 22.01
959 5 2 36 22
960 6 2.01 36.01 22.01
961 1 0 36 24
962 2 0.01 36.01 24.01
963 3 2 38 26
964 4 2.01 38.01 26.01
965 5 2 38 24
966 6 2.01 38.01 24.01
967 5 0 38 26
968 6 0.01 38.01 26.01
969 5 2 36 26
970 6 2.01 36.01 26.01
971 1 0 36 28
972 2 0.01 36.01 28.01
973 3 2 38 30
974 4 2.01 38.01 30.01
975 5 2 38 28
976 6 2.01 38.01 28.01
977 5 0 38 30
978 6 0.01 38.01 30.01
979 5 2 36 30
980 6 2.01 36.01 30.01
981 1 0 36 32
982 2 0.01 36.01 32.01
983 3 2 38 34
984 4 2.01 38.01 34.01
985 5 2 38 32
986 6 2.01 38.01 32.01
987 5 0 38 34
988 6 0.01 38.01 34.01
989 5 2 36 34
990 6 2.01 36.01 34.01
991 1 0 36 36
992 2 0.01 36.01 36.01
993 3 2 38 38
994 4 2.01 38.01 38.01
995 5 2 38 36
996 6 2.01 38.01 36.01
997 5 0 38 38
998 6 0.01 38.01 38.01
999 5 2 36 38
1000 6 2.01 36.01 38.01
1001 1 4 0 0
1002 2 4.01 0.01 0.01
1003 3 6 2 2
1004 4 6.01 2.01 2.01
1005 5 6 2 0
1006 6 6.01 2.01 0.01
1007 5 4 2 2
1008 6 4.01 2.01 2.01
1009 5 6 0 2
1010 6 6.01 0.01 2.01
1011 1 4 0 4
1012 2 4.01 0.01 4.01
1013 3 6 2 6
1014 4 6.01 2.01 6.01
1015 5 6 2 4
1016 6 6.01 2.01 4.01
1017 5 4 2 6
1018 6 4.01 2.01 6.01
1019 5 6 0 6
1020 6 6.01 0.01 6.01
1021 1 4 0 8
1022 2 4.01 0.01 8.01
1023 3 6 2 10
1024 4 6.01 2.01 10.01
1025 5 6 2 8
1026 6 6.01 2.01 8.01
1027 5 4 2 10
1028 6 4.01 2.01 10.01
1029 5 6 0 10
1030 6 6.01 0.01 10.01
1031 1 4 0 12
1032 2 4.01 0.01 12.01
1033 3 6 2 14
1034 4 6.01 2.01 14.01
1035 5 6 2 12
1036 6 6.01 2.01 12.01
1037 5 4 2 14
1038 6 4.01 2.01 14.01
1039 5 6 0 14
1040 6 6.01 0.01 14.01
1041 1 4 0 16
1042 2 4.01 0.01 16.01
1043 3 6 2 18
1044 4 6.01 2.01 18.01
1045 5 6 2 16
1046 6 6.01 2.01 16.01
1047 5 4 2 18
1048 6 4.01 2.01 18.01
1049 5 6 0 18
1050 6 6.01 0.01 18.01
1051 1 4 0 20
1052 2 4.01 0.01 20.01
1053 3 6 2 22
1054 4 6.01 2.01 22.01
1055 5 6 2 20
1056 6 6.01 2.01 20.01
1057 5 4 2 22
1058 6 4.01 2.01 22.01
1059 5 6 0 22
1060 6 6.01 0.01 22.01
1061 1 4 0 24
1062 2 4.01 0.01 24.01
1063 3 6 2 26
1064 4 6.01 2.01 26.01
1065 5 6 2 24
1066 6 6.01 2.01 24.01
1067 5 4 2 26
1068 6 4.01 2.01 26.01
1069 5 6 0 26
1070 6 6.01 0.01 26.01
1071 1 4 0 28
1072 2 4.01 0.01 28.01
1073 3 6 2 30
1074 4 6.01 2.01 30.01
1075 5 6 2 28
1076 6 6.01 2.01 28.01
1077 5 4 2 30
1078 6 4.01 2.01 30.01
1079 5 6 0 30
1080 6 6.01 0.01 30.01
1081 1 4 0 32
1082 2 4.01 0.01 32.01
1083 3 6 2 34
1084 4 6.01 2.01 34.01
1085 5 6 2 32
1086 6 6.01 2.01 32.01
1087 5 4 2 34
1088 6 4.01 2.01 34.01
1089 5 6 0 34
1090 6 6.01 0.01 34.01
1091 1 4 0 36
1092 2 4.01 0.01 36.01
1093 3 6 2 38
1094 4 6.01 2.01 38.01
1095 5 6 2 36
1096 6 6.01 2.01 36.01
1097 5 4 2 38
1098 6 4.01 2.01 38.01
1099 5 6 0 38
1100 6 6.01 0.01 38.01
1101 1 4 4 0
1102 2 4.01 4.01 0.01
1103 3 6 6 2
1104 4 6.01 6.01 2.01
1105 5 6 6 0
1106 6 6.01 6.01 0.01
1107 5 4 6 2
1108 6 4.01 6.01 2.01
1109 5 6 4 2
1110 6 6.01 4.01 2.01
1111 1 4 4 4
1112 2 4.01 4.01 4.01
1113 3 6 6 6
1114 4 6.01 6.01 6.01
1115 5 6 6 4
1116 6 6.01 6.01 4.01
1117 5 4 6 6
1118 6 4.01 6.01 6.01
1119 5 6 4 6
1120 6 6.01 4.01 6.01
1121 1 4 4 8
1122 2 4.01 4.01 8.01
1123 3 6 6 10
1124 4 6.01 6.01 10.01
1125 5 6 6 8
1126 6 6.01 6.01 8.01
1127 5 4 6 10
1128 6 4.01 6.01 10.01
1129 5 6 4 10
1130 6 6.01 4.01 10.01
1131 1 4 4 12
1132 2 4.01 4.01 12.01
1133 3 6 6 14
1134 4 6.01 6.01 14.01
1135 5 6 6 12
1136 6 6.01 6.01 12.01
1137 5 4 6 14
1138 6 4.01 6.01 14.01
1139 5 6 4 14
1140 6 6.01 4.01 14.01
1141 1 4 4 16
1142 2 4.01 4.01 16.01
1143 3 6 6 18
1144 4 6.01 6.01 18.01
1145 5 6 6 16
1146 6 6.01 6.01 16.01
1147 5 4 6 18
1148 6 4.01 6.01 18.01
1149 5 6 4 18
1150 6 6.01 4.01 18.01
1151 1 4 4 20
1152 2 4.01 4.01 20.01
1153 3 6 6 22
1154 4 6.01 6.01 22.01
1155 5 6 6 20
1156 6 6.01 6.01 20.01
1157 5 4 6 22
1158 6 4.01 6.01 22.01
1159 5 6 4 22
1160 6 6.01 4.01 22.01
1161 1 4 4 24
1162 2 4.01 4.01 24.01
1163 3 6 6 26
1164 4 6.01 6.01 26.01
1165 5 6 6 24
1166 6 6.01 6.01 24.01
1167 5 4 6 26
1168 6 4.01 6.01 26.01
1169 5 6 4 26
1170 6 6.01 4.01 26.01
1171 1 4 4 28
1172 2 4.01 4.01 28.01
1173 3 6 6 30
1174 4 6.01 6.01 30.01
1175 5 6 6 28
1176 6 6.01 6.01 28.01
1177 5 4 6 30
1178 6 4.01 6.01 30.01
1179 5 6 4 30
1180 6 6.01 4.01 30.01
1181 1 4 4 32
1182 2 4.01 4.01 32.01
1183 3 6 6 34
1184 4 6.01 6.01 34.01
1185 5 6 6 32
1186 6 6.01 6.01 32.01
1187 5 4 6 34
1188 6 4.01 6.01 34.01
1189 5 6 4 34
1190 6 6.01 4.01 34.01
1191 1 4 4 36
1192 2 4.01 4.01 36.01
1193 3 6 6 38
1194 4 6.01 6.01 38.01
1195 5 6 6 36
1196 6 6.01 6.01 36.01
1197 5 4 6 38
1198 6 4.01 6.01 38.01
1199 5 6 4 38
1200 6 6.01 4.01 38.01
1201 1 4 8 0
1202 2 4.01 8.01 0.01
1203 3 6 10 2
1204 4 6.01 10.01 2.01
1205 5 6 10 0
1206 6 6.01 10.01 0.01
1207 5 4 10 2
1208 6 4.01 10.01 2.01
1209 5 6 8 2
1210 6 6.01 8.01 2.01
1211 1 4 8 4
1212 2 4.01 8.01 4.01
1213 3 6 10 6
1214 4 6.01 10.01 6.01
1215 5 6 10 4
1216 6 6.01 10.01 4.01
1217 5 4 10 6
1218 6 4.01 10.01 6.01
1219 5 6 8 6
1220 6 6.01 8.01 6.01
1221 1 4 8 8
1222 2 4.01 8.01 8.01
1223 3 6 10 10
1224 4 6.01 10.01 10.01
1225 5 6 10 8
1226 6 6.01 10.01 8.01
1227 5 4 10 10
1228 6 4.01 10.01 10.01
1229 5 6 8 10
1230 6 6.01 8.01 10.01
1231 1 4 8 12
1232 2 4.01 8.01 12.01
1233 3 6 10 14
1234 4 6.01 10.01 14.01
1235 5 6 10 12
1236 6 6.01 10.01 12.01
1237 5 4 10 14
1238 6 4.01 10.01 14.01
1239 5 6 8 14
1240 6 6.01 8.01 14.01
1241 1 4 8 16
1242 2 4.01 8.01 16.01
1243 3 6 10 18
1244 4 6.01 10.01 18.01
1245 5 6 10 16
1246 6 6.01 10.01 16.01
1247 5 4 10 18
1248 6 4.01 10.01 18.01
1249 5 6 8 18
1250 6 6.01 8.01 18.01
1251 1 4 8 20
1252 2 4.01 8.01 20.01
1253 3 6 10 22
1254 4 6.01 10.01 22.01
1255 5 6 10 20
1256 6 6.01 10.01 20.01
1257 5 4 10 22
1258 6 4.01 10.01 22.01
1259 5 6 8 22
1260 6 6.01 8.01 22.01
1261 1 4 8 24
1262 2 4.01 8.01 24.01
1263 3 6 10 26
1264 4 6.01 10.01 26.01
1265 5 6 10 24
1266 6 6.01 10.01 24.01
1267 5 4 10 26
1268 6 4.01 10.01 26.01
1269 5 6 8 26
1270 6 6.01 8.01 26.01
1271 1 4 8 28
1272 2 4.01 8.01 28.01
1273 3 6 10 30
1274 4 6.01 10.01 30.01
1275 5 6 10 28
1276 6 6.01 10.01 28.01
1277 5 4 10 30
1278 6 4.01 10.01 30.01
1279 5 6 8 30
1280 6 6.01 8.01 30.01
1281 1 4 8 32
1282 2 4.01 8.01 32.01
1283 3 6 10 34
1284 4 6.01 10.01 34.01
1285 5 6 10 32
1286 6 6.01 10.01 32.01
1287 5 4 10 34
1288 6 4.01 10.01 34.01
1289 5 6 8 34
1290 6 6.01 8.01 34.01
1291 1 4 8 36
1292 2 4.01 8.01 36.01
1293 3 6 10 38
1294 4 6.01 10.01 38.01
1295 5 6 10 36
1296 6 6.01 10.01 36.01
1297 5 4 10 38
1298 6 4.01 10.01 38.01
1299 5 6 8 38
1300 6 6.01 8.01 38.01
1301 1 4 12 0
1302 2 4.01 12.01 0.01
1303 3 6 14 2
1304 4 6.01 14.01 2.01
1305 5 6 14 0
1306 6 6.01 14.01 0.01
1307 5 4 14 2
1308 6 4.01 14.01 2.01
1309 5 6 12 2
1310 6 6.01 12.01 2.01
1311 1 4 12 4
1312 2 4.01 12.01 4.01
1313 3 6 14 6
1314 4 6.01 14.01 6.01
1315 5 6 14 4
1316 6 6.01 14.01 4.01
1317 5 4 14 6
1318 6 4.01 14.01 6.01
1319 5 6 12 6
1320 6 6.01 12.01 6.01
1321 1 4 12 8
1322 2 4.01 12.01 8.01
1323 3 6 14 10
1324 4 6.01 14.01 10.01
1325 5 6 14 8
1326 6 6.01 14.01 8.01
1327 5 4 14 10
1328 6 4.01 14.01 10.01
1329 5 6 12 10
1330 6 6.01 12.01 10.01
1331 1 4 12 12
1332 2 4.01 12.01 12.01
1333 3 6 14 14
1334 4 6.01 14.01 14.01
1335 5 6 14 12
1336 6 6.01 14.01 12.01
1337 5 4 14 14
1338 6 4.01 14.01 14.01
1339 5 6 12 14
1340 6 6.01 12.01 14.01
1341 1 4 12 16
1342 2 4.01 12.01 16.01
1343 3 6 14 18
1344 4 6.01 14.01 18.01
1345 5 6 14 16
1346 6 6.01 14.01 16.01
1347 5 4 14 18
1348 6 4.01 14.01 18.01
1349 5 6 12 18
1350 6 6.01 12.01 18.01
1351 1 4 12 20
1352 2 4.01 12.01 20.01
1353 3 6 14 22
1354 4 6.01 14.01 22.01
1355 5 6 14 20
1356 6 6.01 14.01 20.01
1357 5 4 14 22
1358 6 4.01 14.01 22.01
1359 5 6 12 22
1360 6 6.01 12.01 22.01
1361 1 4 12 24
1362 2 4.01 12.01 24.01
1363 3 6 14 26
1364 4 6.01 14.01 26.01
1365 5 6 14 24
1366 6 6.01 14.01 24.01
1367 5 4 14 26
1368 6 4.01 14.01 26.01
1369 5 6 12 26
1370 6 6.01 12.01 26.01
1371 1 4 12 28
1372 2 4.01 12.01 28.01
1373 3 6 14 30
1374 4 6.01 14.01 30.01
1375 5 6 14 28
1376 6 6.01 14.01 28.01
1377 5 4 14 30
1378 6 4.01 14.01 30.01
1379 5 6 12 30
1380 6 6.01 12.01 30.01
1381 1 4 12 32
1382 2 4.01 12.01 32.01
1383 3 6 14 34
1384 4 6.01 14.01 34.01
1385 5 6 14 32
1386 6 6.01 14.01 32.01
1387 5 4 14 34
1388 6 4.01 14.01 34.01
1389 5 6 12 34
1390 6 6.01 12.01 34.01
1391 1 4 12 36
1392 2 4.01 12.01 36.01
1393 3 6 14 38
1394 4 6.01 14.01 38.01
1395 5 6 14 36
1396 6 6.01 14.01 36.01
1397 5 4 14 38
1398 6 4.01 14.01 38.01
1399 5 6 12 38
1400 6 6.01 12.01 38.01
1401 1 4 16 0
1402 2 4.01 16.01 0.01
1403 3 6 18 2
1404 4 6.01 18.01 2.01
1405 5 6 18 0
1406 6 6.01 18.01 0.01
1407 5 4 18 2
1408 6 4.01 18.01 2.01
1409 5 6 16 2
1410 6 6.01 16.01 2.01
1411 1 4 16 4
1412 2 4.01 16.01 4.01
1413 3 6 18 6
1414 4 6.01 18.01 6.01
1415 5 6 18 4
1416 6 6.01 18.01 4.01
1417 5 4 18 6
1418 6 4.01 18.01 6.01
1419 5 6 16 6
1420 6 6.01 16.01 6.01
1421 1 4 16 8
1422 2 4.01 16.01 8.01
1423 3 6 18 10
1424 4 6.01 18.01 10.01
1425 5 6 18 8
1426 6 6.01 18.01 8.01
1427 5 4 18 10
1428 6 4.01 18.01 10.01
1429 5 6 16 10
1430 6 6.01 16.01 10.01
1431 1 4 16 12
1432 2 4.01 16.01 12.01
1433 3 6 18 14
1434 4 6.01 18.01 14.01
1435 5 6 18 12
1436 6 6.01 18.01 12.01
1437 5 4 18 14
1438 6 4.01 18.01 14.01
1439 5 6 16 14
1440 6 6.01 16.01 14.01
1441 1 4 16 16
1442 2 4.01 16.01 16.01
1443 3 6 18 18
1444 4 6.01 18.01 18.01
1445 5 6 18 16
1446 6 6.01 18.01 16.01
1447 5 4 18 18
1448 6 4.01 18.01 18.01
1449 5 6 16 18
1450 6 6.01 16.01 18.01
1451 1 4 16 20
1452 2 4.01 16.01 20.01
1453 3 6 18 22
1454 4 6.01 18.01 22.01
1455 5 6 18 20
1456 6 6.01 18.01 20.01
1457 5 4 18 22
1458 6 4.01 18.01 22.01
1459 5 6 16 22
1460 6 6.01 16.01 22.01
1461 1 4 16 24
1462 2 4.01 16.01 24.01
1463 3 6 18 26
1464 4 6.01 18.01 26.01
1465 5 6 18 24
1466 6 6.01 18.01 24.01
1467 5 4 18 26
1468 6 4.01 18.01 26.01
1469 5 6 16 26
1470 6 6.01 16.01 26.01
1471 1 4 16 28
1472 2 4.01 16.01 28.01
1473 3 6 18 30
1474 4 6.01 18.01 30.01
1475 5 6 18 28
1476 6 6.01 18.01 28.01
1477 5 4 18 30
1478 6 4.01 18.01 30.01
1479 5 6 16 30
1480 6 6.01 16.01 30.01
1481 1 4 16 32
1482 2 4.01 16.01 32.01
1483 3 6 18 34
1484 4 6.01 18.01 34.01
1485 5 6 18 32
1486 6 6.01 18.01 32.01
1487 5 4 18 34
1488 6 4.01 18.01 34.01
1489 5 6 16 34
1490 6 6.01 16.01 34.01
1491 1 4 16 36
1492 2 4.01 16.01 36.01
1493 3 6 18 38
1494 4 6.01 18.01 38.01
1495 5 6 18 36
1496 6 6.01 18.01 36.01
1497 5 4 18 38
1498 6 4.01 18.01 38.01
1499 5 6 16 38
1500 6 6.01 16.01 38.01
1501 1 4 20 0
1502 2 4.01 20.01 0.01
1503 3 6 22 2
1504 4 6.01 22.01 2.01
1505 5 6 22 0
1506 6 6.01 22.01 0.01
1507 5 4 22 2
1508 6 4.01 22.01 2.01
1509 5 6 20 2
1510 6 6.01 20.01 2.01
1511 1 4 20 4
1512 2 4.01 20.01 4.01
1513 3 6 22 6
1514 4 6.01 22.01 6.01
1515 5 6 22 4
1516 6 6.01 22.01 4.01
1517 5 4 22 6
1518 6 4.01 22.01 6.01
1519 5 6 20 6
1520 6 6.01 20.01 6.01
1521 1 4 20 8
1522 2 4.01 20.01 8.01
1523 3 6 22 10
1524 4 6.01 22.01 10.01
1525 5 6 22 8
1526 6 6.01 22.01 8.01
1527 5 4 22 10
1528 6 4.01 22.01 10.01
1529 5 6 20 10
1530 6 6.01 20.01 10.01
1531 1 4 20 12
1532 2 4.01 20.01 12.01
1533 3 6 22 14
1534 4 6.01 22.01 14.01
1535 5 6 22 12
1536 6 6.01 22.01 12.01
1537 5 4 22 14
1538 6 4.01 22.01 14.01
1539 5 6 20 14
1540 6 6.01 20.01 14.01
1541 1 4 20 16
1542 2 4.01 20.01 16.01
1543 3 6 22 18
1544 4 6.01 22.01 18.01
1545 5 6 22 16
1546 6 6.01 22.01 16.01
1547 5 4 22 18
1548 6 4.01 22.01 18.01
1549 5 6 20 18
1550 6 6.01 20.01 18.01
1551 1 4 20 20
1552 2 4.01 20.01 20.01
1553 3 6 22 22
1554 4 6.01 22.01 22.01
1555 5 6 22 20
1556 6 6.01 22.01 20.01
1557 5 4 22 22
1558 6 4.01 22.01 22.01
1559 5 6 20 22
1560 6 6.01 20.01 22.01
1561 1 4 20 24
1562 2 4.01 20.01 24.01
1563 3 6 22 26
1564 4 6.01 22.01 26.01
1565 5 6 22 24
1566 6 6.01 22.01 24.01
1567 5 4 22 26
1568 6 4.01 22.01 26.01
1569 5 6 20 26
1570 6 6.01 20.01 26.01
1571 1 4 20 28
1572 2 4.01 20.01 28.01
1573 3 6 22 30
1574 4 6.01 22.01 30.01
1575 5 6 22 28
1576 6 6.01 22.01 28.01
1577 5 4 22 30
1578 6 4.01 22.01 30.01
1579 5 6 20 30
1580 6 6.01 20.01 30.01
1581 1 4 20 32
1582 2 4.01 20.01 32.01
1583 3 6 22 34
1584 4 6.01 22.01 34.01
1585 5 6 22 32
1586 6 6.01 22.01 32.01
1587 5 4 22 34
1588 6 4.01 22.01 34.01
1589 5 6 20 34
1590 6 6.01 20.01 34.01
1591 1 4 20 36
1592 2 4.01 20.01 36.01
1593 3 6 22 38
1594 4 6.01 22.01 38.01
1595 5 6 22 36
1596 6 6.01 22.01 36.01
1597 5 4 22 38
1598 6 4.01 22.01 38.01
1599 5 6 20 38
1600 6 6.01 20.01 38.01
1601 1 4 24 0
1602 2 4.01 24.01 0.01
1603 3 6 26 2
1604 4 6.01 26.01 2.01
1605 5 6 26 0
1606 6 6.01 26.01 0.01
1607 5 4 26 2
1608 6 4.01 26.01 2.01
1609 5 6 24 2
1610 6 6.01 24.01 2.01
1611 1 4 24 4
1612 2 4.01 24.01 4.01
1613 3 6 26 6
1614 4 6.01 26.01 6.01
1615 5 6 26 4
1616 6 6.01 26.01 4.01
1617 5 4 26 6
1618 6 4.01 26.01 6.01
1619 5 6 24 6
1620 6 6.01 24.01 6.01
1621 1 4 24 8
1622 2 4.01 24.01 8.01
1623 3 6 26 10
1624 4 6.01 26.01 10.01
1625 5 6 26 8
1626 6 6.01 26.01 8.01
1627 5 4 26 10
1628 6 4.01 26.01 10.01