LAMMPS (2 Apr 2025)
OMP_NUM_THREADS environment is not set. Defaulting to 1 thread. (src/comm.cpp:99)
  using 1 OpenMP thread(s) per MPI task
Loaded 1 plugins from C:\Users\Abhiraj\AppData\Local\LAMMPS 64-bit 2Apr2025 with Python\plugins
units     metal
atom_style charge
boundary   s s s
read_data  GaN_nanobelt.data
Reading data file ...
  orthogonal box = (-0.0210474 -0.003314106 -0.006613986) to (210.49505 33.144374 66.146474)
  1 by 1 by 1 MPI processor grid
  reading atoms ...
  14121 atoms
  reading velocities ...
  14121 velocities
  read_data CPU = 0.093 seconds

pair_style sw
pair_coeff * * GaN.sw Ga N

neighbor 2.0 bin
neigh_modify delay 0 every 1 check yes

minimize 1.0e-6 1.0e-8 10000 100000
Neighbor list info ...
  update: every = 1 steps, delay = 0 steps, check = yes
  max neighbors/atom: 2000, page size: 100000
  master list distance cutoff = 3.8
  ghost atom cutoff = 3.8
  binsize = 1.9, bins = 111 18 35
  1 neighbor lists, perpetual/occasional/extra = 1 0 0
  (1) pair sw, perpetual
      attributes: full, newton on
      pair build: full/bin/atomonly
      stencil: full/bin/3d
      bin: standard
Per MPI rank memory allocation (min/avg/max) = 5.179 | 5.179 | 5.179 Mbytes
   Step          Temp          E_pair         E_mol          TotEng         Press          Volume    
         0   0              0              0              0              0              461624.37    
         1   0              0              0              0              0              461624.37    
Loop time of 0.000877 on 1 procs for 1 steps with 14121 atoms

0.0% CPU use with 1 MPI tasks x 1 OpenMP threads

Minimization stats:
  Stopping criterion = search direction is not downhill
  Energy initial, next-to-last, final = 
                     0                  0                  0
  Force two-norm initial, final = 0 0
  Force max component initial, final = 0 0
  Final line search alpha, max atom move = 0 0
  Iterations, force evaluations = 1 0

MPI task timing breakdown:
Section |  min time  |  avg time  |  max time  |%varavg| %total
---------------------------------------------------------------
Pair    | 0.00058    | 0.00058    | 0.00058    |   0.0 | 66.13
Neigh   | 0          | 0          | 0          |   0.0 |  0.00
Comm    | 1e-06      | 1e-06      | 1e-06      |   0.0 |  0.11
Output  | 0          | 0          | 0          |   0.0 |  0.00
Modify  | 0          | 0          | 0          |   0.0 |  0.00
Other   |            | 0.000296   |            |       | 33.75

Nlocal:          14121 ave       14121 max       14121 min
Histogram: 1 0 0 0 0 0 0 0 0 0
Nghost:              0 ave           0 max           0 min
Histogram: 1 0 0 0 0 0 0 0 0 0
Neighs:              0 ave           0 max           0 min
Histogram: 1 0 0 0 0 0 0 0 0 0
FullNghs:       117304 ave      117304 max      117304 min
Histogram: 1 0 0 0 0 0 0 0 0 0

Total # of neighbors = 117304
Ave neighs/atom = 8.3070604
Neighbor list builds = 0
Dangerous builds = 0

timestep 0.001

fix nvt all nvt temp 300.0 300.0 0.1
run 100000
Per MPI rank memory allocation (min/avg/max) = 4.054 | 4.054 | 4.054 Mbytes
   Step          Temp          E_pair         E_mol          TotEng         Press          Volume    
         1   0              0              0              0              0              461624.37    
    100001   0              0              0              0              0              461624.37    
Loop time of 49.5114 on 1 procs for 100000 steps with 14121 atoms

Performance: 174.505 ns/day, 0.138 hours/ns, 2019.739 timesteps/s, 28.521 Matom-step/s
94.2% CPU use with 1 MPI tasks x 1 OpenMP threads

MPI task timing breakdown:
Section |  min time  |  avg time  |  max time  |%varavg| %total
---------------------------------------------------------------
Pair    | 33.009     | 33.009     | 33.009     |   0.0 | 66.67
Neigh   | 0          | 0          | 0          |   0.0 |  0.00
Comm    | 0.013454   | 0.013454   | 0.013454   |   0.0 |  0.03
Output  | 0.00032    | 0.00032    | 0.00032    |   0.0 |  0.00
Modify  | 14.505     | 14.505     | 14.505     |   0.0 | 29.30
Other   |            | 1.984      |            |       |  4.01

Nlocal:          14121 ave       14121 max       14121 min
Histogram: 1 0 0 0 0 0 0 0 0 0
Nghost:              0 ave           0 max           0 min
Histogram: 1 0 0 0 0 0 0 0 0 0
Neighs:              0 ave           0 max           0 min
Histogram: 1 0 0 0 0 0 0 0 0 0
FullNghs:       117304 ave      117304 max      117304 min
Histogram: 1 0 0 0 0 0 0 0 0 0

Total # of neighbors = 117304
Ave neighs/atom = 8.3070604
Neighbor list builds = 0
Dangerous builds = 0
unfix nvt

variable efield equal 2.0  # CHANGE THIS VALUE PER RUN
fix efield all efield 0.0 0.0 ${efield}
fix efield all efield 0.0 0.0 2

fix nvt2 all nvt temp 300.0 300.0 0.1
run 100000
Per MPI rank memory allocation (min/avg/max) = 4.054 | 4.054 | 4.054 Mbytes
   Step          Temp          E_pair         E_mol          TotEng         Press          Volume    
    100001   0              0              0              0              0              461624.37    
    200001   840.69944     -5873.8773      0             -4339.472       641.9705       17273023     
Loop time of 130.16 on 1 procs for 100000 steps with 14121 atoms

Performance: 66.380 ns/day, 0.362 hours/ns, 768.284 timesteps/s, 10.849 Matom-step/s
90.8% CPU use with 1 MPI tasks x 1 OpenMP threads

MPI task timing breakdown:
Section |  min time  |  avg time  |  max time  |%varavg| %total
---------------------------------------------------------------
Pair    | 87.325     | 87.325     | 87.325     |   0.0 | 67.09
Neigh   | 8.0112     | 8.0112     | 8.0112     |   0.0 |  6.15
Comm    | 0.33248    | 0.33248    | 0.33248    |   0.0 |  0.26
Output  | 0.000228   | 0.000228   | 0.000228   |   0.0 |  0.00
Modify  | 32.081     | 32.081     | 32.081     |   0.0 | 24.65
Other   |            | 2.411      |            |       |  1.85

Nlocal:          14121 ave       14121 max       14121 min
Histogram: 1 0 0 0 0 0 0 0 0 0
Nghost:              0 ave           0 max           0 min
Histogram: 1 0 0 0 0 0 0 0 0 0
Neighs:              0 ave           0 max           0 min
Histogram: 1 0 0 0 0 0 0 0 0 0
FullNghs:       167152 ave      167152 max      167152 min
Histogram: 1 0 0 0 0 0 0 0 0 0

Total # of neighbors = 167152
Ave neighs/atom = 11.837122
Neighbor list builds = 2385
Dangerous builds = 0
unfix nvt2

region mid block INF INF INF INF 10 12 units box
group middle region mid
792 atoms in group middle

fix bend middle addforce 0.0 0.02 0.0
run 5000
WARNING: No fixes with time integration, atoms won't move
For more information see https://docs.lammps.org/err0028 (src/verlet.cpp:60)
Per MPI rank memory allocation (min/avg/max) = 16.99 | 16.99 | 16.99 Mbytes
   Step          Temp          E_pair         E_mol          TotEng         Press          Volume    
    200001   840.69944     -5873.8773      0             -4339.472       641.72348      17279672     
    205001   840.69944     -5873.8773      0             -4339.472       641.72348      17279672     
Loop time of 5.46317 on 1 procs for 5000 steps with 14121 atoms

Performance: 79.075 ns/day, 0.304 hours/ns, 915.219 timesteps/s, 12.924 Matom-step/s
93.5% CPU use with 1 MPI tasks x 1 OpenMP threads

MPI task timing breakdown:
Section |  min time  |  avg time  |  max time  |%varavg| %total
---------------------------------------------------------------
Pair    | 4.4485     | 4.4485     | 4.4485     |   0.0 | 81.43
Neigh   | 0          | 0          | 0          |   0.0 |  0.00
Comm    | 0.000831   | 0.000831   | 0.000831   |   0.0 |  0.02
Output  | 0.000203   | 0.000203   | 0.000203   |   0.0 |  0.00
Modify  | 0.90294    | 0.90294    | 0.90294    |   0.0 | 16.53
Other   |            | 0.1107     |            |       |  2.03

Nlocal:          14121 ave       14121 max       14121 min
Histogram: 1 0 0 0 0 0 0 0 0 0
Nghost:              0 ave           0 max           0 min
Histogram: 1 0 0 0 0 0 0 0 0 0
Neighs:              0 ave           0 max           0 min
Histogram: 1 0 0 0 0 0 0 0 0 0
FullNghs:       167152 ave      167152 max      167152 min
Histogram: 1 0 0 0 0 0 0 0 0 0

Total # of neighbors = 167152
Ave neighs/atom = 11.837122
Neighbor list builds = 0
Dangerous builds = 0
unfix bend

unfix efield

fix nve all nve

# ---------- Compute Stress Tensor ----------
compute stress all stress/atom NULL
compute pzz all reduce sum c_stress[3]
variable lz equal lz
variable area equal lx*ly
variable stress_z equal c_pzz/v_area  # stress in GPa

thermo 100
thermo_style custom step temp v_stress_z pe ke etotal

# ---------- Set Dump Directory Based on E-field ----------
variable dumpdir string dump_vibrate_${efield}
variable dumpdir string dump_vibrate_2
shell mkdir ${dumpdir}
shell mkdir dump_vibrate_2

# ---------- Dump Vibrate Files to Specified Folder ----------
dump 1 all custom 100 ${dumpdir}/dump.vibrate.* id type x y z
dump 1 all custom 100 dump_vibrate_2/dump.vibrate.* id type x y z

run 500000
Per MPI rank memory allocation (min/avg/max) = 17.74 | 17.74 | 17.74 Mbytes
   Step          Temp        v_stress_z       PotEng         KinEng         TotEng    
    205001   840.69944     -4767229.9     -5873.8773      1534.4053     -4339.472     
    205100   895.24179     -4510149.2     -5974.1292      1633.9535     -4340.1758    
    205200   1087.2007     -3397449.7     -6326.5945      1984.308      -4342.2865    
    205300   1234.8313     -1802557.9     -6597.0443      2253.7564     -4343.2879    
    205400   1228.7752     -163541.02     -6585.4631      2242.7031     -4342.76      
    205500   1100.7371      1218193.7     -6350.6847      2009.0138     -4341.6709    
    205600   946.1654       2177520.3     -6067.6657      1726.8969     -4340.7688    
    205700   850.76388      2646403.4     -5893.0943      1552.7745     -4340.3199    
    205800   858.9926       2608392.8     -5908.1492      1567.7931     -4340.356     
    205900   967.22177      2064340.8     -6106.2054      1765.328      -4340.8774    
    206000   1124.0508      1035620.1     -6393.3989      2051.565      -4341.8339    
    206100   1239.3946     -398038.2      -6604.985       2262.085      -4342.9       
    206200   1221.6608     -2053350.6     -6572.9703      2229.7181     -4343.2522    
    206300   1056.6762     -3606393.8     -6270.5906      1928.596      -4341.9946    
    206400   875.24918     -4606469.3     -5937.3865      1597.4639     -4339.9226    
    206500   863.14763     -4663564       -5915.1433      1575.3767     -4339.7666    
    206600   1033.7795     -3752664.1     -6228.5695      1886.8061     -4341.7635    
    206700   1209.6244     -2237158.3     -6550.9507      2207.7498     -4343.2008    
    206800   1245.2453     -574432.44     -6615.757       2272.7635     -4342.9935    
    206900   1140.6846      894972.21     -6423.8808      2081.9243     -4341.9565    
    207000   983.51711      1973813.9     -6136.0336      1795.0694     -4340.9641    
    207100   866.56028      2573071.3     -5921.995       1581.6053     -4340.3897    
    207200   846.23324      2667159.5     -5884.8055      1544.5054     -4340.3001    
    207300   931.51949      2253927.1     -6040.8613      1700.1658     -4340.6955    
    207400   1083.1566      1346729.8     -6318.4806      1976.9268     -4341.5538    
    207500   1219.1038      5645.5952     -6567.7003      2225.0512     -4342.6491    
    207600   1242.1601     -1617018.5     -6610.4231      2267.1325     -4343.2906    
    207700   1108.9821     -3236309.4     -6366.5448      2024.0623     -4342.4825    
    207800   912.33905     -4425666.1     -6005.5463      1665.1586     -4340.3878    
    207900   844.64557     -4749209.7     -5881.1319      1541.6076     -4339.5243    
    208000   980.39988     -4066645.7     -6130.5682      1789.38       -4341.1882    
    208100   1174.0368     -2662569.7     -6485.7888      2142.7971     -4342.9917    
    208200   1251.7809     -999168.69     -6627.8639      2284.6919     -4343.172     
    208300   1177.0845      544778.4      -6490.6077      2148.3595     -4342.2482    
    208400   1023.7993      1737356.9     -6209.7798      1868.5906     -4341.1892    
    208500   889.14227      2465495.1     -5963.3134      1622.8209     -4340.4925    
    208600   840.86788      2691585.2     -5874.9897      1534.7127     -4340.2769    
    208700   900.54107      2409887.3     -5984.1713      1643.6255     -4340.5458    
    208800   1041.3139      1628021.4     -6241.8499      1900.5575     -4341.2924    
    208900   1190.9239      389591.64     -6515.9889      2173.6187     -4342.3702    
    209000   1251.3054     -1181295.9     -6627.0499      2283.8241     -4343.2258    
    209100   1156.2851     -2837401.4     -6453.2634      2110.3975     -4342.8659    
    209200   958.85203     -4184654.9     -6090.9944      1750.0519     -4340.9425    
    209300   841.35413     -4764246.1     -5875.0809      1535.6002     -4339.4807    
    209400   931.01578     -4330964.6     -6039.8609      1699.2465     -4340.6144    
    209500   1129.7218     -3071070       -6404.5737      2061.9154     -4342.6583    
    209600   1247.4062     -1432797.9     -6619.9823      2276.7075     -4343.2748    
    209700   1208.0839      170206.38     -6547.4722      2204.9383     -4342.5339    
    209800   1065.5217      1469106.2     -6286.1813      1944.7404     -4341.4409    
    209900   917.81399      2323834.7     -6015.7795      1675.1512     -4340.6284    
    210000   843.05436      2681651.3     -5878.9898      1538.7034     -4340.2864    
    210100   875.29288      2531865.6     -5937.9727      1597.5436     -4340.429     
    210200   1000.2325      1878024.2     -6166.6331      1825.5776     -4341.0556    
    210300   1156.578       750414.79     -6453.0115      2110.932      -4342.0794    
    210400   1249.2803     -752164.15     -6623.2046      2280.128      -4343.0767    
    210500   1195.803      -2418144.8     -6525.6515      2182.5236     -4343.1279    
    210600   1011.0342     -3890625.3     -6186.8166      1845.2923     -4341.5244    
    210700   853.56406     -4708167.8     -5897.5269      1557.8852     -4339.6417    
    210800   889.5248      -4537955.5     -5963.623       1623.5191     -4340.104     
    210900   1079.1406     -3454367.8     -6311.8083      1969.597      -4342.2113    
    211000   1231.6757     -1869650       -6591.2789      2247.9968     -4343.2821    
    211100   1231.9009     -225603.28     -6591.2067      2248.408      -4342.7987    
    211200   1107.0322      1170367.9     -6362.2174      2020.5035     -4341.714     
    211300   951.66022      2148376.4     -6077.7225      1736.9257     -4340.7968    
    211400   852.7285       2637365.2     -5896.6886      1556.3602     -4340.3285    
    211500   856.56372      2619654.9     -5903.7054      1563.3601     -4340.3453    
    211600   961.4746       2095641.2     -6095.6859      1754.8385     -4340.8474    
    211700   1117.9         1085296.2     -6382.1288      2040.3389     -4341.7899    
    211800   1236.853      -334873.82     -6600.3102      2257.4462     -4342.8639    
    211900   1225.5372     -1986521       -6580.0587      2236.7932     -4343.2655    
    212000   1064.908      -3551745.9     -6285.6955      1943.6203     -4342.0752    
    212100   880.20105     -4582849.3     -5946.4876      1606.5018     -4339.9858    
    212200   859.36578     -4681228.7     -5908.1917      1568.4742     -4339.7175    
    212300   1025.477      -3803810.8     -6213.33        1871.6527     -4341.6773    
    212400   1204.7989     -2303313.7     -6542.1194      2198.9426     -4343.1768    
    212500   1246.9253     -638916.54     -6618.8547      2275.8297     -4343.025     
    212600   1146.5554      842853.48     -6434.6405      2092.6393     -4342.0012    
    212700   989.55185      1939587.3     -6147.0806      1806.0838     -4340.9968    
    212800   869.60402      2558764.2     -5927.564       1587.1606     -4340.4034    
    212900   844.92143      2673146.9     -5882.4055      1542.1111     -4340.2944    
    213000   926.42426      2280090.9     -6031.5366      1690.8662     -4340.6703    
    213100   1076.7442      1391936       -6306.7354      1965.2231     -4341.5123    
    213200   1215.2453      66021.032     -6560.6165      2218.0089     -4342.6076    
    213300   1244.3067     -1549863.8     -6614.3374      2271.0505     -4343.2869    
    213400   1116.6545     -3176667.8     -6380.6143      2038.0655     -4342.5488    
    213500   918.96248     -4392380.3     -6017.7161      1677.2474     -4340.4687    
    213600   843.12748     -4756152.2     -5878.341       1538.8368     -4339.5042    
    213700   972.45122     -4110695.7     -6115.9709      1774.8725     -4341.0984    
    213800   1167.7421     -2726644.6     -6474.2567      2131.3083     -4342.9484    
    213900   1251.836      -1065358.9     -6627.9858      2284.7926     -4343.1932    
    214000   1182.2451      488731.7      -6500.0714      2157.7785     -4342.2928    
    214100   1030.1567      1698174.4     -6221.4201      1880.1938     -4341.2263    
    214200   893.17258      2445937.3     -5970.6881      1630.1768     -4340.5113    
    214300   840.71184      2692293       -5874.7042      1534.428      -4340.2763    
    214400   896.26633      2430847.9     -5976.3491      1635.8234     -4340.5257    
    214500   1034.9106      1668505.1     -6230.1246      1888.8704     -4341.2543    
    214600   1186.0019      446619.24     -6506.9612      2164.6352     -4342.326     
    214700   1251.7075     -1114783.7     -6627.7658      2284.558      -4343.2078    
    214800   1162.9234     -2774091.8     -6465.4277      2122.5134     -4342.9143    
    214900   966.60104     -4142723.9     -6105.2267      1764.195      -4341.0317    
    215000   842.23379     -4760233.3     -5876.6981      1537.2057     -4339.4923    
    215100   924.03332     -4366677.5     -6027.0327      1686.5024     -4340.5303    
    215200   1122.2846     -3131823.1     -6390.9378      2048.3413     -4342.5965    
    215300   1245.7303     -1499870.5     -6616.9313      2273.6486     -4343.2826    
    215400   1212.2537      110677.6      -6555.1252      2212.5488     -4342.5764    
    215500   1071.9575      1425144.2     -6297.9684      1956.4868     -4341.4816    
    215600   922.70441      2299060.7     -6024.7291      1684.077      -4340.6521    
    215700   844.05867      2677079.3     -5880.8271      1540.5364     -4340.2907    
    215800   871.97412      2547582.9     -5931.9004      1591.4864     -4340.414     
    215900   994.08872      1913594       -6155.3859      1814.3643     -4341.0217    
    216000   1150.8695      803625.73     -6442.5478      2100.5133     -4342.0346    
    216100   1248.021      -687148        -6620.8773      2277.8297     -4343.0476    
    216200   1201.0473     -2352430.6     -6535.2524      2192.0954     -4343.157     
    216300   1019.3019     -3841253.5     -6201.9946      1860.3823     -4341.6124    
    216400   856.76369     -4693334.8     -5903.4086      1563.725      -4339.6835    
    216500   884.07705     -4564253.8     -5953.6112      1613.5761     -4340.0351    
    216600   1071.0066     -3510486.6     -6296.8852      1954.7512     -4342.1341    
    216700   1228.2553     -1936668.1     -6585.0278      2241.7542     -4343.2736    
    216800   1234.8184     -288080.1      -6596.5694      2253.7329     -4342.8365    
    216900   1113.2806      1121861.7     -6373.6651      2031.9077     -4341.7574    
    217000   957.25095      2118444.8     -6087.9552      1747.1297     -4340.8255    
    217100   854.8636       2627516.6     -5900.5949      1560.2571     -4340.3378    
    217200   854.30261      2630106.9     -5899.5685      1559.2332     -4340.3354    
    217300   955.81537      2126157.9     -6085.3276      1744.5095     -4340.8181    
    217400   1111.6909      1134304.5     -6370.7525      2029.0062     -4341.7463    
    217500   1234.094      -272097.86     -6595.2376      2252.4107     -4342.8269    
    217600   1229.1532     -1919573.9     -6586.669       2243.393      -4343.276     
    217700   1073.0886     -3496243.2     -6300.7052      1958.5512     -4342.154     
    217800   885.44107     -4557687.1     -5956.118       1616.0656     -4340.0524    
    217900   855.91491     -4697275.2     -5901.8483      1562.1759     -4339.6724    
    218000   1017.1891     -3853951.9     -6198.116       1856.526      -4341.59      
    218100   1199.7314     -2369226.5     -6532.8435      2189.6937     -4343.1499    
    218200   1248.3656     -703712        -6621.5137      2278.4586     -4343.0552    
    218300   1152.3356      790105.48     -6445.2352      2103.1891     -4342.046     
    218400   995.65102      1904589.7     -6158.2459      1817.2157     -4341.0302    
    218500   872.80624      2543648.7     -5933.4229      1593.0051     -4340.4178    
    218600   843.78557      2678323.1     -5880.3275      1540.038      -4340.2895    
    218700   921.44496      2305458.7     -6022.4243      1681.7783     -4340.646     
    218800   1070.316       1436431.2     -6294.9618      1953.4906     -4341.4712    
    218900   1211.2061      125916.02     -6553.2023      2210.6368     -4342.5656    
    219000   1246.1836     -1482747.8     -6617.7569      2274.476      -4343.2809    
    219100   1124.1961     -3116377.5     -6394.4427      2051.8302     -4342.6125    
    219200   925.79664     -4357694.1     -6030.2724      1689.7207     -4340.5516    
    219300   841.97436     -4761417.2     -5876.2211      1536.7322     -4339.4889    
    219400   964.61158     -4153542       -6101.5729      1760.564      -4341.0089    
    219500   1161.2474     -2790291.9     -6462.3568      2119.4545     -4342.9022    
    219600   1251.6299     -1131741.1     -6627.629       2284.4164     -4343.2126    
    219700   1187.2715      432118.8      -6509.2897      2166.9524     -4342.3373    
    219800   1036.5426      1658244.5     -6233.113       1891.8491     -4341.264     
    219900   897.34414      2425575.2     -5978.3213      1637.7906     -4340.5308    
    220000   840.73467      2692189.5     -5874.746       1534.4696     -4340.2764    
    220100   892.13053      2451004.8     -5968.7813      1628.2749     -4340.5064    
    220200   1028.5314      1708244.7     -6218.4441      1877.2274     -4341.2168    
    220300   1180.9407      503088.67     -6497.6792      2155.3977     -4342.2815    
    220400   1251.8467     -1048448.6     -6628           2284.812      -4343.188     
    220500   1169.3678     -2710332.6     -6477.2352      2134.2754     -4342.9598    
    220600   974.46988     -4099567.6     -6119.6782      1778.5569     -4341.1213    
    220700   843.48031     -4754539.7     -5878.9897      1539.4808     -4339.5088    
    220800   917.25168     -4401008.7     -6014.5728      1674.1249     -4340.4479    
    220900   1114.7085     -3191950.8     -6377.046       2034.5139     -4342.5321    
    221000   1243.7846     -1566998.5     -6613.3855      2270.0974     -4343.2881    
    221100   1216.2474      50658.773     -6562.4561      2219.8378     -4342.6183    
    221200   1078.3823      1380467       -6309.7358      1968.213      -4341.5228    
    221300   927.71366      2273489.7     -6033.8963      1693.2196     -4340.6767    
    221400   845.23951      2671696       -5882.9875      1542.6916     -4340.2958    
    221500   868.81213      2562492.1     -5926.1151      1585.7153     -4340.3998    
    221600   988.0055       1948395.1     -6144.2499      1803.2614     -4340.9884    
    221700   1145.0656      856213.98     -6431.9099      2089.9201     -4341.9898    
    221800   1246.5192     -622430.37     -6618.1056      2275.0885     -4343.0171    
    221900   1206.0535     -2286453.3     -6544.4157      2201.2324     -4343.1832    
    222000   1027.595      -3790852.8     -6217.2177      1875.5183     -4341.6994    
    222100   860.29972     -4676874.1     -5909.9085      1570.1788     -4339.7296    
    222200   878.90958     -4589024.2     -5944.114       1604.1447     -4339.9694    
    222300   1062.8116     -3565774.2     -6281.8489      1939.7941     -4342.0548    
    222400   1224.5726     -2003587.6     -6578.295       2235.0327     -4343.2623    
    222500   1237.5224     -350956.64     -6601.5413      2258.6681     -4342.8732    
    222600   1119.4755      1072682.3     -6385.0155      2043.2143     -4341.8011    
    222700   962.93307      2087727.9     -6098.3554      1757.5004     -4340.855     
    222800   857.16768      2616857.8     -5904.8103      1564.4624     -4340.348     
    222900   852.21088      2639748.7     -5895.7416      1555.4155     -4340.3262    
    223000   950.24868      2155888.6     -6075.1391      1734.3495     -4340.7896    
    223100   1105.4299      1182637.6     -6359.282       2017.579      -4341.7029    
    223200   1231.1228     -209725.43     -6589.7768      2246.9878     -4342.7889    
    223300   1232.5062     -1852534.6     -6592.7965      2249.5127     -4343.2838    
    223400   1081.205      -3439917.4     -6315.5956      1973.3648     -4342.2307    
    223500   890.95859     -4531002       -5966.258       1626.136      -4340.122     
    223600   852.80223     -4711691       -5896.1264      1556.4948     -4339.6317    
    223700   1008.93       -3903056.1     -6182.9537      1841.4519     -4341.5018    
    223800   1194.4271     -2434869.2     -6523.1326      2180.0126     -4343.12      
    223900   1249.5623     -768801.54     -6623.7265      2280.6427     -4343.0839    
    224000   1158.0186      736737.08     -6455.6523      2113.5614     -4342.0909    
    224100   1001.8094      1868824.4     -6169.52        1828.4556     -4341.0644    
    224200   876.16463      2527725.3     -5939.5677      1599.1347     -4340.433     
    224300   842.82643      2682688.2     -5878.5728      1538.2874     -4340.2854    
    224400   916.58547      2330029       -6013.5314      1672.909      -4340.6224    
    224500   1063.8783      1480209.8     -6283.1715      1941.7409     -4341.4306    
    224600   1206.9924      185317.71     -6545.469       2202.946      -4342.523     
    224700   1247.7907     -1415693       -6620.6818      2277.4093     -4343.2725    
    224800   1131.5962     -3055469.7     -6408.0101      2065.3365     -4342.6736    
    224900   932.82819     -4321632.7     -6043.1906      1702.5544     -4340.6362    
    225000   841.18864     -4765000.5     -5874.7766      1535.2982     -4339.4785    
    225100   956.89548     -4195155.7     -6087.4007      1746.4809     -4340.9199    
    225200   1154.561      -2853482       -6450.1039      2107.2508     -4342.8531    
    225300   1251.1604     -1198295.4     -6626.7895      2283.5595     -4343.23      
    225400   1192.1569      374950.52     -6518.2505      2175.869      -4342.3815    
    225500   1042.9512      1617571.6     -6244.848       1903.5458     -4341.3022    
    225600   901.65382      2404409.7     -5986.2075      1645.6564     -4340.5511    
    225700   840.93634      2691274.6     -5875.1149      1534.8377     -4340.2772    
    225800   888.13674      2470357.3     -5961.4735      1620.9857     -4340.4879    
    225900   1022.1822      1747235.9     -6206.8191      1865.6392     -4341.1799    
    226000   1175.7468      558989.18     -6488.1549      2145.9181     -4342.2368    
    226100   1251.7253     -982310.49     -6627.7567      2284.5904     -4343.1663    
    226200   1175.6102     -2646153.2     -6488.6711      2145.6688     -4343.0023    
    226300   982.44404     -4055215.2     -6134.322       1793.1109     -4341.2111    
    226400   845.09107     -4747170       -5881.9509      1542.4207     -4339.5302    
    226500   910.68411     -4433933.2     -6002.5055      1662.1381     -4340.3674    
    226600   1107.0046     -3251421.8     -6362.9182      2020.4531     -4342.4651    
    226700   1241.5691     -1634159.4     -6609.345       2266.0539     -4343.2912    
    226800   1220.0588     -9837.1742     -6569.4538      2226.7942     -4342.6596    
    226900   1084.7897      1335080.4     -6321.4719      1979.9074     -4341.5645    
    227000   932.83785      2247123       -6043.274       1702.572      -4340.702     
    227100   846.59608      2665501.7     -5885.4693      1545.1676     -4340.3017    
    227200   865.80919      2576592.9     -5920.6208      1580.2344     -4340.3863    
    227300   981.98802      1982424.5     -6133.2345      1792.2786     -4340.9559    
    227400   1139.1728      908170.72     -6421.11        2079.1649     -4341.9451    
    227500   1244.7787     -558028.44     -6614.8972      2271.9119     -4342.9853    
    227600   1210.8165     -2220240.2     -6553.1321      2209.9256     -4343.2065    
    227700   1035.8989     -3739454.5     -6232.4595      1890.6742     -4341.7853    
    227800   864.16482     -4658798.6     -5917.013       1577.2332     -4339.7798    
    227900   874.03288     -4612247.8     -5935.151       1595.2439     -4339.907     
    228000   1054.5689     -3620198.8     -6266.7236      1924.7499     -4341.9738    
    228100   1220.6302     -2070383.2     -6571.0855      2227.8371     -4343.2484    
    228200   1240.0077     -414217.67     -6606.1131      2263.2041     -4342.909     
    228300   1125.6103      1022837       -6396.2565      2054.4113     -4341.8452    
    228400   968.70192      2056227.9     -6108.9147      1768.0295     -4340.8852    
    228500   859.6391       2605389.1     -5909.332       1568.9731     -4340.3589    
    228600   850.28999      2648580       -5892.2273      1551.9095     -4340.3178    
    228700   944.77906      2184831.3     -6065.1284      1724.3666     -4340.7618    
    228800   1099.1239      1230288.7     -6347.7295      2006.0696     -4341.6599    
    228900   1227.9449     -147771.3      -6583.9376      2241.1876     -4342.75      
    229000   1235.594      -1785427.6     -6598.4374      2255.1484     -4343.289     
    229100   1089.2443     -3382800.4     -6330.3431      1988.0378     -4342.3054    
    229200   896.74247     -4502814.2     -5976.887       1636.6924     -4340.1946    
    229300   850.03422     -4724464.6     -5891.038       1551.4427     -4339.5953    
    229400   1000.7143     -3951092.4     -6167.8699      1826.457      -4341.4129    
    229500   1188.8918     -2500214       -6512.9968      2169.9097     -4343.0871    
    229600   1250.5115     -834167.5      -6625.4862      2282.3752     -4343.111     
    229700   1163.5975      682757.47     -6465.8795      2123.7438     -4342.1358    
    229800   1008.0216      1832294.5     -6180.893       1839.7939     -4341.0991    
    229900   879.67674      2510994.4     -5945.9939      1605.5449     -4340.449     
    230000   842.0447       2686242       -5877.1426      1536.8606     -4340.282     
    230100   911.84953      2353800.6     -6004.8647      1664.2651     -4340.5996    
    230200   1057.4375      1523266.3     -6271.3759      1929.9854     -4341.3905    
    230300   1202.6103      244213.59     -6537.428       2194.9481     -4342.4799    
    230400   1249.1286     -1348721.2     -6623.113       2279.8511     -4343.2618    
    230500   1138.8443     -2993975.4     -6421.2973      2078.5653     -4342.732     
    230600   940.04351     -4284221.6     -6056.4456      1715.7235     -4340.7221    
    230700   840.772       -4766899.3     -5874.0107      1534.5377     -4339.4729    
    230800   949.31734     -4235508.4     -6073.4811      1732.6496     -4340.8315    
    230900   1147.6915     -2916184.9     -6437.5139      2094.7128     -4342.8011    
    231000   1250.4256     -1265001.5     -6625.4637      2282.2183     -4343.2455    
    231100   1196.8948      317237.99     -6526.9419      2184.5165     -4342.4254    
    231200   1049.3765      1576160.4     -6256.6141      1915.273      -4341.3411    
    231300   906.0984       2382441.7     -5994.3406      1653.7684     -4340.5721    
    231400   841.31672      2689548.2     -5875.8108      1535.5319     -4340.2789    
    231500   884.28792      2488904.4     -5954.4311      1613.961      -4340.4701    
    231600   1015.8688      1785474.6     -6195.2599      1854.1163     -4341.1436    
    231700   1170.427       614310.34     -6478.4006      2136.2086     -4342.192     
    231800   1251.3459     -916388.64     -6627.0409      2283.8981     -4343.1428    
    231900   1181.6431     -2581583.1     -6499.7216      2156.6798     -4343.0418    
    232000   990.50891     -4009696.2     -6149.1314      1807.8306     -4341.3009    
    232100   847.06266     -4738130.1     -5885.5754      1546.0192     -4339.5562    
    232200   904.34355     -4465427       -5990.8547      1650.5656     -4340.2892    
    232300   1099.1842     -3310204.5     -6348.5754      2006.1797     -4342.3957    
    232400   1239.0843     -1701330.2     -6604.8105      2261.5187     -4343.2918    
    232500   1223.6819     -70796.968     -6576.1073      2233.407      -4342.7002    
    232600   1091.1732      1288990.4     -6333.165       1991.5584     -4341.6066    
    232700   938.07295      2219962.3     -6052.855       1712.1269     -4340.7281    
    232800   848.12742      2658496.4     -5888.2709      1547.9625     -4340.3084    
    232900   862.96744      2589884.8     -5915.4215      1575.0478     -4340.3737    
    233000   976.0414       2015679.2     -6122.3492      1781.4251     -4340.924     
    233100   1133.198       959487.43     -6410.1606      2068.26       -4341.9006    
    233200   1242.804      -493958.99     -6611.2599      2268.3078     -4342.9521    
    233300   1215.3316     -2153818.4     -6561.3933      2218.1664     -4343.2269    
    233400   1044.1996     -3687090       -6247.6942      1905.8243     -4341.8699    
    233500   868.35097     -4639122.5     -5924.7075      1584.8736     -4339.8339    
    233600   869.45692     -4633906.7     -5926.7403      1586.8921     -4339.8482    
    233700   1046.2919     -3673728.6     -6251.534       1909.643      -4341.891     
    233800   1216.4312     -2137029.1     -6563.4049      2220.1734     -4343.2316    
    233900   1242.2693     -477847.64     -6610.2754      2267.3318     -4342.9436    
    234000   1131.6783      972333.43     -6407.3757      2065.4863     -4341.8894    
    234100   974.55276      2023947.2     -6119.6243      1778.7081     -4340.9161    
    234200   862.27613      2593110.7     -5914.1567      1573.7861     -4340.3706    
    234300   848.5413       2656600.7     -5889.0281      1548.7179     -4340.3102    
    234400   939.41089      2212984       -6055.3036      1714.5688     -4340.7348    
    234500   1092.7794      1277250.7     -6336.1071      1994.4898     -4341.6173    
    234600   1224.5657     -86249.863     -6577.7304      2235.02       -4342.7104    
    234700   1238.4149     -1718277.4     -6603.5885      2260.2969     -4343.2915    
    234800   1097.194      -3324924       -6344.925       2002.5472     -4342.3778    
    234900   902.78108     -4473144.6     -5987.9836      1647.7138     -4340.2698    
    235000   847.61667     -4735586       -5886.5938      1547.0303     -4339.5635    
    235100   992.55642     -3998030.1     -6152.8911      1811.5676     -4341.3235    
    235200   1183.1314     -2565232.7     -6502.4473      2159.396      -4343.0513    
    235300   1251.2098     -899791.83     -6626.7862      2283.6496     -4343.1366    
    235400   1169.0656      628176.09     -6475.9045      2133.7239     -4342.1807    
    235500   1014.2822      1795003.6     -6192.355       1851.2204     -4341.1346    
    235600   883.34004      2493456.8     -5952.6967      1612.2309     -4340.4658    
    235700   841.4409       2688984.4     -5876.038       1535.7586     -4340.2794    
    235800   907.24076      2376772.1     -5996.431       1655.8534     -4340.5776    
    235900   1050.9997      1565595.5     -6259.5865      1918.2355     -4341.351     
    236000   1198.0662      302591.49     -6529.0909      2186.6544     -4342.4365    
    236100   1250.198      -1281854.1     -6625.052       2281.803      -4343.249     
    236200   1145.9303     -2931925.4     -6434.2859      2091.4984     -4342.7875    
    236300   947.42874     -4245487.5     -6070.012       1729.2026     -4340.8093    
    236400   840.72531     -4767112.1     -5873.9248      1534.4525     -4339.4723    
    236500   941.89146     -4274572.1     -6059.8403      1719.0962     -4340.744     
    236600   1140.6479     -2978370.3     -6424.6034      2081.8572     -4342.7462    
    236700   1249.4237     -1331838.7     -6623.6486      2280.3898     -4343.2588    
    236800   1201.4788      258992.69     -6535.3519      2192.8829     -4342.469     
    236900   1055.8126      1534015.5     -6268.4002      1927.0198     -4341.3805    
    237000   910.67452      2359672.2     -6002.7145      1662.1206     -4340.594     
    237100   841.87555      2687010.5     -5876.8332      1536.5519     -4340.2813    
    237200   880.5869       2506645.5     -5947.6592      1607.206      -4340.4532    
    237300   1009.5969      1822957       -6183.7771      1842.669      -4341.108     
    237400   1164.9879      669042.02     -6468.4286      2126.2815     -4342.1471    
    237500   1250.7115     -850702.01     -6625.8578      2282.7402     -4343.1176    
    237600   1187.4593     -2516651.2     -6510.3735      2167.2952     -4343.0784    
    237700   998.6499      -3963040.5     -6164.0795      1822.6891     -4341.3904    
    237800   849.39096     -4727427       -5889.8555      1550.2687     -4339.5869    
    237900   898.24256     -4495466.9     -5979.6436      1639.4303     -4340.2133    
    238000   1091.2591     -3368267.6     -6334.0389      1991.7151     -4342.3239    
    238100   1236.331      -1768487.6     -6599.7834      2256.4935     -4343.2899    
    238200   1227.111      -132207        -6582.4058      2239.6656     -4342.7401    
    238300   1097.5264      1242203.2     -6344.8031      2003.1539     -4341.6491    
    238400   943.41484      2192009.3     -6062.6316      1721.8767     -4340.7549    
    238500   849.83247      2650680.3     -5891.3903      1551.0745     -4340.3158    
    238600   860.28892      2602367.4     -5910.5209      1570.1591     -4340.3618    
    238700   970.17065      2048156.5     -6111.603       1770.7101     -4340.8929    
    238800   1127.1479      1010155.9     -6399.074       2057.2177     -4341.8563    
    238900   1240.5997     -430238.45     -6607.2023      2264.2845     -4342.9178    
    239000   1219.5948     -2087214.2     -6569.1917      2225.9473     -4343.2444    
    239100   1052.4832     -3633791       -6262.8961      1920.9431     -4341.953     
    239200   872.84954     -4617861       -5932.976       1593.0842     -4339.8918    
    239300   865.19111     -4653984.4     -5918.8995      1579.1064     -4339.7931    
    239400   1037.9942     -3726331.9     -6236.3052      1894.4984     -4341.8068    
    239500   1211.9793     -2203499.5     -6555.2598      2212.0479     -4343.2119    
    239600   1244.3024     -541830.59     -6614.0195      2271.0425     -4342.977     
    239700   1137.6727      921179.53     -6418.3609      2076.427      -4341.9339    
    239800   980.4807       1990888.4     -6130.4753      1789.5275     -4340.9478    
    239900   865.07688      2580023       -5919.2809      1578.8979     -4340.3831    
    240000   846.96602      2663810.6     -5886.1461      1545.8428     -4340.3033    
    240100   934.14845      2240344.7     -6045.6726      1704.9641     -4340.7085    
    240200   1086.4029      1323517.2     -6324.4268      1982.8517     -4341.5751    
    240300   1220.9909     -25175.17      -6571.1655      2228.4956     -4342.6699    
    240400   1240.9675     -1651107.7     -6608.2475      2264.9559     -4343.2916    
    240500   1105.0419     -3266319.9     -6359.3187      2016.8709     -4342.4478    
    240600   909.06237     -4442015.5     -5999.5256      1659.1781     -4340.3475    
    240700   845.55465     -4745046.4     -5882.8031      1543.2668     -4339.5363    
    240800   984.47096     -4043838.8     -6138.0442      1796.8104     -4341.2338    
    240900   1177.1525     -2629896.8     -6491.4962      2148.4837     -4343.0125    
    241000   1251.6538     -965656.1      -6627.6205      2284.46       -4343.1605    
    241100   1174.4161      573002.73     -6485.7149      2143.4894     -4342.2255    
    241200   1020.5856      1756955.3     -6203.8958      1862.7252     -4341.1707    
    241300   887.15183      2475113       -5959.6714      1619.188      -4340.4833    
    241400   841.01547      2690915.5     -5875.2597      1534.9821     -4340.2776    
    241500   902.76267      2398942.4     -5988.2365      1647.6802     -4340.5563    
    241600   1044.5711      1607192.3     -6247.8143      1906.5023     -4341.312     
    241700   1193.3665      360439.53     -6520.4694      2178.0768     -4342.3926    
    241800   1251.0001     -1215113       -6626.501       2283.2669     -4343.2341    
    241900   1152.8446     -2869350.2     -6446.9584      2104.1181     -4342.8403    
    242000   954.9698      -4205457.5     -6083.8637      1742.9662     -4340.8975    
    242100   841.04866     -4765638.6     -5874.5193      1535.0427     -4339.4766    
    242200   934.63195     -4312319.5     -6046.5043      1705.8465     -4340.6577    
    242300   1133.4398     -3040007.7     -6411.3899      2068.7013     -4342.6886    
    242400   1248.1537     -1398786.1     -6621.3417      2278.0717     -4343.27      
    242500   1205.9023      200226.36     -6543.4687      2200.9565     -4342.5122    
    242600   1062.2532      1491142       -6280.1953      1938.7749     -4341.4204    
    242700   915.37871      2336102.4     -6011.323       1670.7064     -4340.6166    
    242800   842.61243      2683661.4     -5878.1813      1537.8968     -4340.2845    
    242900   877.03639      2523579.9     -5941.1628      1600.7258     -4340.437     
    243000   1003.372       1859679.2     -6172.3807      1831.3076     -4341.0731    
    243100   1159.4363      723174.37     -6458.2512      2116.149      -4342.1022    
    243200   1249.8253     -785269.14     -6624.2136      2281.1227     -4343.0909    
    243300   1193.052      -2451386       -6520.6148      2177.5028     -4343.112     
    243400   1006.8524     -3915278.4     -6179.1394      1837.66       -4341.4794    
    243500   852.07106     -4715069.3     -5894.7824      1555.1603     -4339.6221    
    243600   892.39329     -4524030.7     -5968.8946      1628.7545     -4340.1401    
    243700   1083.2412     -3425579.2     -6319.331       1977.0813     -4342.2498    
    243800   1233.3104     -1835607.7     -6594.2658      2250.9805     -4343.2854    
    243900   1230.3403     -194053.3      -6588.3387      2245.5595     -4342.7792    
    244000   1103.8428      1194725.4     -6356.3743      2014.6823     -4341.6921    
    244100   948.85927      2163265.8     -6072.5961      1731.8136     -4340.7825    
    244200   851.71004      2642053.5     -5894.8253      1554.5013     -4340.324     
    244300   857.77554      2614040.5     -5905.9225      1565.5718     -4340.3507    
    244400   964.38065      2079853.7     -6101.005       1760.1425     -4340.8625    
    244500   1121.0293      1060168       -6387.8626      2046.0504     -4341.8122    
    244600   1238.1704     -366882.84     -6602.733       2259.8506     -4342.8824    
    244700   1223.6022     -2020454       -6576.5207      2233.2616     -4343.2591    
    244800   1060.7358     -3579589.1     -6278.04        1936.0055     -4342.0345    
    244900   877.65127     -4595030.6     -5941.8014      1601.8481     -4339.9533    
    245000   861.24422     -4672465.1     -5911.6446      1571.9027     -4339.7419    
    245100   1029.6897     -3777977       -6221.0627      1879.3415     -4341.7212    
    245200   1207.2784     -2269767.8     -6546.6575      2203.4681     -4343.1894    
    245300   1246.1023     -606150.2      -6617.3369      2274.3277     -4343.0092    
    245400   1143.5868      869383.48     -6429.1997      2087.2212     -4341.9785    
    245500   986.48078      1957054.2     -6141.4587      1800.4786     -4340.9801    
    245600   868.03935      2566126.3     -5924.7012      1584.3048     -4340.3963    
    245700   845.56526      2670209.6     -5883.5834      1543.2862     -4340.2972    
    245800   928.9959       2266911.9     -6036.2429      1695.5599     -4340.683     
    245900   1080.0009      1369081.8     -6312.7005      1971.1672     -4341.5333    
    246000   1217.2265      35439.079     -6564.2536      2221.6248     -4342.6288    
    246100   1243.251      -1583942.1     -6612.4127      2269.1236     -4343.2891    
    246200   1112.7763     -3207019.6     -6373.5027      2030.9873     -4342.5154    
    246300   915.57386     -4409449.7     -6011.49        1671.0626     -4340.4274    
    246400   843.8525      -4752838.1     -5879.6739      1540.1601     -4339.5138    
    246500   976.47254     -4088488.4     -6123.356       1782.212      -4341.144     
    246600   1170.9622     -2694177.5     -6480.1563      2137.1855     -4342.9708    
    246700   1251.8405     -1031741.5     -6627.9834      2284.8008     -4343.1827    
    246800   1179.6424      517247.42     -6495.2984      2153.0282     -4342.2702    
    246900   1026.9263      1718153.6     -6215.5053      1874.2979     -4341.2074    
    247000   891.10931      2455963.7     -5966.9127      1626.4111     -4340.5017    
    247100   840.76869      2692035.2     -5874.8082      1534.5317     -4340.2765    
    247200   898.41864      2420310.5     -5980.2875      1639.7517     -4340.5358    
    247300   1038.1577      1648051.9     -6236.0704      1894.7969     -4341.2736    
    247400   1188.5177      417746.2      -6511.5754      2169.2269     -4342.3485    
    247500   1251.5364     -1148518.5     -6627.4629      2284.2457     -4343.2172    
    247600   1159.5781     -2806280.2     -6459.2978      2116.4077     -4342.8901    
    247700   962.65245     -4164159.3     -6097.9746      1756.9882     -4340.9864    
    247800   841.74137     -4762480.1     -5875.7928      1536.307      -4339.4858    
    247900   927.55274     -4348723.9     -6033.4987      1692.9259     -4340.5728    
    248000   1126.0771     -3101066.5     -6397.8914      2055.2632     -4342.6282    
    248100   1246.6145     -1465822.1     -6618.5415      2275.2626     -4343.279     
    248200   1210.1591      140951.13     -6551.2808      2208.7259     -4342.5549    
    248300   1068.6923      1447545.1     -6291.988       1950.5272     -4341.4609    
    248400   920.20738      2311733.5     -6020.1595      1679.5195     -4340.64      
    248500   843.52686      2679501       -5879.8542      1539.5658     -4340.2884    
    248600   873.63898      2539707.1     -5934.9466      1594.525      -4340.4216    
    248700   997.19951      1895637.8     -6161.0807      1820.0419     -4341.0388    
    248800   1153.779       776697.87     -6447.8808      2105.8235     -4342.0573    
    248900   1248.6907     -720108.18     -6622.1144      2279.0519     -4343.0625    
    249000   1198.4152     -2385815.9     -6530.4339      2187.2913     -4343.1426    
    249100   1015.1019     -3866440.8     -6194.2843      1852.7165     -4341.5678    
    249200   855.09736     -4701066.9     -5900.3455      1560.6837     -4339.6618    
    249300   886.80749     -4551096.9     -5958.6292      1618.5596     -4340.0697    
    249400   1075.1431     -3482107.6     -6304.4745      1962.301      -4342.1735    
    249500   1230.0241     -1902666.5     -6588.2608      2244.9825     -4343.2782    
    249600   1233.3641     -256321.56     -6593.896       2251.0785     -4342.8174    
    249700   1110.1157      1146563.7     -6367.8666      2026.1313     -4341.7353    
    249800   954.40189      2133733.7     -6082.7406      1741.9297     -4340.8109    
    249900   853.7588       2632616.1     -5898.5736      1558.2406     -4340.333     
    250000   855.42908      2624903.6     -5901.6295      1561.2892     -4340.3403    
    250100   958.67621      2110768.4     -6090.5639      1749.731      -4340.8329    
    250200   1114.849       1109516.1     -6376.5386      2034.7702     -4341.7684    
    250300   1235.5211     -303907.84     -6597.8611      2255.0153     -4342.8458    
    250400   1227.3508     -1953563.4     -6583.3742      2240.1032     -4343.271     
    250500   1068.9441     -3524516.3     -6293.101       1950.9868     -4342.1142    
    250600   882.74635     -4570648.7     -5951.1656      1611.1474     -4340.0182    
    250700   857.62444     -4689334.5     -5904.9908      1565.296      -4339.6948    
    250800   1021.3926     -3828632.4     -6205.8324      1864.198      -4341.6344    
    250900   1202.3331     -2335807.1     -6537.6061      2194.4422     -4343.1639    
    251000   1247.6648     -670789.77     -6620.2195      2277.1795     -4343.04      
    251100   1149.4138      816953.75     -6439.8797      2097.8564     -4342.0233    
    251200   992.5479       1922447.5     -6152.5652      1811.552      -4341.0132    
    251300   871.16142      2551421       -5930.4135      1590.0031     -4340.4104    
    251400   844.33999      2675797.5     -5881.3418      1541.0499     -4340.2919    
    251500   923.95727      2292683.8     -6027.0219      1686.3636     -4340.6583    
    251600   1073.5799      1413938.6     -6300.9398      1959.4479     -4341.492     
    251700   1213.2782      95579.526     -6557.0057      2214.4187     -4342.587     
    251800   1245.2648     -1516803.7     -6616.0833      2272.7991     -4343.2842    
    251900   1120.3857     -3147054.6     -6387.456       2044.8755     -4342.5805    
    252000   922.30272     -4375471.2     -6023.8531      1683.3438     -4340.5093    
    252100   842.51379     -4758955.1     -5877.2128      1537.7168     -4339.496     
    252200   968.57575     -4131949.3     -6108.8535      1767.7992     -4341.0543    
    252300   1164.568      -2758045.5     -6468.4412      2125.5151     -4342.9261    
    252400   1251.7673     -1098028.7     -6627.8702      2284.6672     -4343.203     
    252500   1184.7377      460920.54     -6504.6427      2162.3279     -4342.3148    
    252600   1033.2985      1678602.4     -6227.1728      1885.928      -4341.2448    
    252700   895.20957      2436009.7     -5974.4154      1633.8947     -4340.5208    
    252800   840.70073      2692343.5     -5874.6839      1534.4077     -4340.2762    
    252900   894.21194      2440875.5     -5972.5899      1632.0738     -4340.5161    
    253000   1031.7655      1688169.7     -6224.3659      1883.1301     -4341.2357    
    253100   1183.5263      474500.26     -6502.4209      2160.1169     -4342.3041    
    253200   1251.8087     -1082091       -6627.9411      2284.7428     -4343.1983    
    253300   1166.1219     -2742745.4     -6471.2883      2128.3512     -4342.9371    
    253400   970.46228     -4121621.2     -6112.3182      1771.2424     -4341.0758    
    253500   842.80199     -4757639.1     -5877.7426      1538.2428     -4339.4999    
    253600   920.6675      -4383759.5     -6020.8488      1680.3593     -4340.4895    
    253700   1118.5701     -3161515.5     -6384.127       2041.5619     -4342.5651    
    253800   1244.8057     -1532924.8     -6615.2469      2271.9612     -4343.2856    
    253900   1214.2429      81179.412     -6558.7765      2216.1794     -4342.5971    
    254000   1075.1234      1403230.2     -6303.7669      1962.2651     -4341.5019    
    254100   925.1568       2286566.8     -6029.2171      1688.5529     -4340.6641    
    254200   844.61821      2674529.4     -5881.8508      1541.5577     -4340.2931    
    254300   870.39714      2555026.5     -5929.0151      1588.6082     -4340.4069    
    254400   991.08491      1930829.4     -6149.887       1808.8818     -4341.0052    
    254500   1148.0227      829603.26     -6437.3298      2095.3173     -4342.0125    
    254600   1247.3115     -655236.87     -6619.5673      2276.5346     -4343.0328    
    254700   1203.5429     -2319968.6     -6539.8205      2196.6502     -4343.1703    
    254800   1023.3839     -3816558.4     -6209.4878      1867.8325     -4341.6554    
    254900   858.46355     -4685430.7     -5906.5332      1566.8275     -4339.7057    
    255000   881.49643     -4576645.1     -5948.8684      1608.8661     -4340.0023    
    255100   1066.9775     -3537821       -6289.4927      1947.3974     -4342.0953    
    255200   1226.4743     -1969639.2     -6581.7719      2238.5035     -4343.2684    
    255300   1236.1771     -318997.11     -6599.0674      2256.2127     -4342.8547    
    255400   1116.3386      1097725.1     -6379.2679      2037.489      -4341.7789    
    255500   960.0382       2103415.1     -6093.0568      1752.2168     -4340.84      
    255600   855.97731      2622368.5     -5902.6325      1562.2898     -4340.3427    
    255700   853.2512       2634956.7     -5897.6449      1557.3142     -4340.3307    
    255800   953.06198      2140898.3     -6080.2882      1739.4842     -4340.804     
    255900   1108.6135      1158192.9     -6365.1144      2023.3895     -4341.7249    
    256000   1232.6569     -241328.75     -6592.5961      2249.7878     -4342.8083    
    256100   1230.8375     -1886567.8     -6589.7473      2246.4671     -4343.2802    
    256200   1077.0947     -3468604.2     -6308.0549      1965.8629     -4342.192     
    256300   888.12439     -4544734.1     -5961.0494      1620.9631     -4340.0863    
    256400   854.33927     -4704579.4     -5898.9519      1559.3001     -4339.6518    
    256500   1013.1171     -3878266.7     -6190.6406      1849.094      -4341.5467    
    256600   1197.1484     -2401590.3     -6528.1147      2184.9792     -4343.1355    
    256700   1248.9857     -735732.25     -6622.6597      2279.5902     -4343.0695    
    256800   1155.147       763899.08     -6450.3884      2108.3203     -4342.0681    
    256900   998.67688      1887071.4     -6163.7853      1822.7384     -4341.047     
    257000   874.44084      2535907.5     -5936.4137      1595.9885     -4340.4252    
    257100   843.29107      2680574.2     -5879.4228      1539.1354     -4340.2874    
    257200   919.03651      2317659       -6018.0167      1677.3825     -4340.6343    
    257300   1067.1463      1458081.6     -6289.1566      1947.7055     -4341.4511    
    257400   1209.1523      155233.15     -6549.433       2206.8883     -4342.5447    
    257500   1247.0088     -1449715       -6619.2591      2275.9821     -4343.277     
    257600   1127.8589     -3086456.3     -6401.1583      2058.5154     -4342.6429    
    257700   929.23578     -4340104.5     -6036.5908      1695.9977     -4340.5931    
    257800   841.54136     -4763392.3     -5875.4251      1535.942      -4339.4831    
    257900   960.79514     -4174192.1     -6094.5634      1753.5984     -4340.965     
    258000   1157.9779     -2821471.4     -6456.3655      2113.4871     -4342.8784    
    258100   1251.4318     -1164498.1     -6627.2762      2284.0547     -4343.2214    
    258200   1189.6955      404032.75     -6513.7357      2171.3766     -4342.3591    
    258300   1039.6963      1638306.1     -6238.8878      1897.6051     -4341.2827    
    258400   899.44955      2415251.8     -5982.1739      1641.6333     -4340.5407    
    258500   840.81164      2691840.3     -5874.8868      1534.6101     -4340.2767    
    258600   890.1457       2460636.3     -5965.1495      1624.6523     -4340.4972    
    258700   1025.4004      1727541.2     -6212.7113      1871.5128     -4341.1985    
    258800   1178.3989      530690.83     -6493.0181      2150.7586     -4342.2595    
    258900   1251.8193     -1015850.5     -6627.9395      2284.762      -4343.1775    
    259000   1172.4679     -2678775.6     -6482.9146      2139.9335     -4342.9811    
    259100   978.38481     -4077872.2     -6126.8678      1785.7022     -4341.1655    
    259200   844.22827     -4751119.4     -5880.3647      1540.846      -4339.5187    
    259300   913.98966     -4417400.9     -6008.5792      1668.1712     -4340.408     
    259400   1110.9297     -3221323.7     -6370.1164      2027.617      -4342.4994    
    259500   1242.7272     -1600071.8     -6611.4574      2268.1675     -4343.2899    
    259600   1218.1476      20923.971     -6565.9447      2223.306      -4342.6387    
    259700   1081.5405      1358202.9     -6315.5204      1973.9771     -4341.5433    
    259800   930.22315      2260603.7     -6038.4889      1697.7998     -4340.6891    
    259900   845.8857       2668746.7     -5884.1697      1543.871      -4340.2986    
    260000   867.3132       2569537.7     -5923.3726      1582.9795     -4340.3931    
    260100   985.03342      1965250.8     -6138.8092      1797.8369     -4340.9723    
    260200   1142.1741      881881.58     -6426.6105      2084.6428     -4341.9678    
    260300   1245.6915     -590672.6      -6616.5796      2273.578      -4343.0016    
    260400   1208.4299     -2253871.8     -6548.7648      2205.5698     -4343.195     
    260500   1031.6841     -3765662.4     -6224.7234      1882.9815     -4341.7419    
    260600   862.1626      -4668173       -5913.3327      1573.5789     -4339.7538    
    260700   876.47088     -4600656       -5939.6319      1599.6937     -4339.9382    
    260800   1058.7573     -3592687.6     -6274.4095      1932.3944     -4342.0151    
    260900   1222.6633     -2036500.8     -6574.8036      2231.5478     -4343.2558    
    261000   1238.7741     -382064.93     -6603.8435      2260.9525     -4342.891     
    261100   1122.5048      1048216.8     -6390.566       2048.7432     -4341.8228    
    261200   965.76362      2072312.2     -6103.5364      1762.6666     -4340.8698    
    261300   858.36402      2611310.8     -5906.9991      1566.6459     -4340.3533    
    261400   851.24343      2644199.3     -5893.9717      1553.6497     -4340.322     
    261500   947.54255      2170241.2     -6070.1862      1729.4104     -4340.7758    
    261600   1102.3295      1206190.9     -6353.602       2011.9203     -4341.6817    
    261700   1229.5832     -179160.5      -6586.9477      2244.1778     -4342.7699    
    261800   1234.0602     -1819492       -6595.6356      2252.3489     -4343.2867    
    261900   1085.1747     -3411884.8     -6322.8779      1980.6101     -4342.2678    
    262000   893.77452     -4517306.3     -5971.4329      1631.2755     -4340.1574    
    262100   851.39556     -4718187.8     -5893.5406      1553.9274     -4339.6132    
    262200   1004.8776     -3926848.8     -6175.5136      1834.0556     -4341.4581    
    262300   1191.7295     -2467089.8     -6518.1932      2175.0891     -4343.1042    
    262400   1250.0609     -800960.15     -6624.6502      2281.5528     -4343.0974    
    262500   1160.7796      710228.5      -6460.7136      2118.6006     -4342.113     
    262600   1004.8624      1850929.1     -6175.1093      1834.0279     -4341.0814    
    262700   877.87525      2519586.4     -5942.6976      1602.2569     -4340.4408    
    262800   842.41923      2684539.8     -5877.8278      1537.5442     -4340.2836    
    262900   914.2374       2341836.1     -6009.2344      1668.6234     -4340.6111    
    263000   1060.7063      1501505.3     -6277.3623      1935.9515     -4341.4108    
    263100   1204.8549      214387.28     -6541.5467      2199.0448     -4342.5018    
    263200   1248.4832     -1382698.3     -6621.9407      2278.6732     -4343.2675    
    263300   1135.1854     -3025255.8     -6414.5901      2071.8874     -4342.7027    
    263400   936.35955     -4303375.1     -6049.678       1708.9997     -4340.6783    
    263500   840.93726     -4766146.3     -5874.3145      1534.8394     -4339.4751    
    263600   953.14519     -4215188.3     -6080.5123      1739.636      -4340.8762    
    263700   1151.2002     -2884425.3     -6443.9446      2101.1167     -4342.8279    
    263800   1250.8318     -1231129.7     -6626.1976      2282.9597     -4343.2379    
    263900   1194.5091      346595.02     -6522.5653      2180.1622     -4342.4032    
    264000   1046.1139      1597269       -6250.6394      1909.3182     -4341.3213    
    264100   903.82608      2393690.9     -5990.1824      1649.6211     -4340.5613    
    264200   841.10135      2690525.7     -5875.4168      1535.1389     -4340.2779    
    264300   886.22294      2479592.2     -5957.9717      1617.4927     -4340.479     
    264400   1019.0681      1766162.3     -6201.1174      1859.9555     -4341.1619    
    264500   1173.1422      586307.31     -6483.379       2141.1642     -4342.2147    
    264600   1251.5705     -949816.46     -6627.4629      2284.308      -4343.1549    
    264700   1178.608      -2614400.2     -6494.1624      2151.1403     -4343.0221    
    264800   986.40547     -4032941.5     -6141.5965      1800.3412     -4341.2553    
    264900   846.0172      -4742926.3     -5883.6534      1544.111      -4339.5424    
    265000   907.5323      -4449623.8     -5996.7141      1656.3855     -4340.3286    
    265100   1103.167      -3280459.6     -6355.8801      2013.4488     -4342.4312    
    265200   1240.379      -1667240.5     -6607.1735      2263.8817     -4343.2918    
    265300   1221.867      -39802.096     -6572.7742      2230.0946     -4342.6797    
    265400   1087.9369      1312469.1     -6327.2367      1985.6516     -4341.5852    
    265500   935.40247      2233845.8     -6047.9676      1707.2529     -4340.7148    
    265600   847.32847      2662153       -5886.8092      1546.5043     -4340.3049    
    265700   864.38938      2583240.1     -5918.0231      1577.6431     -4340.38      
    265800   979.05021      1998899       -6127.8568      1786.9167     -4340.9401    
    265900   1136.2401      933524.16     -6415.7355      2073.8123     -4341.9232    
    266000   1243.8352     -526432.34     -6613.1589      2270.1898     -4342.9691    
    266100   1213.0714     -2187552.6     -6557.258       2214.0411     -4343.2169    
    266200   1039.9882     -3713784.3     -6239.9649      1898.1378     -4341.8271    
    266300   866.18686     -4649307.4     -5920.7297      1580.9238     -4339.806     
    266400   871.74109     -4623111.2     -5930.9387      1591.0611     -4339.8776    
    266500   1050.496      -3646675.5     -6259.2494      1917.3162     -4341.9332    
    266600   1218.5941     -2103225.9     -6567.3614      2224.1209     -4343.2404    
    266700   1241.1498     -445509.63     -6608.2147      2265.2886     -4342.9262    
    266800   1128.6075      998046.3      -6401.7485      2059.8816     -4341.8669    
    266900   971.57345      2040427.4     -6114.1708      1773.2704     -4340.9003    
    267000   860.91723      2599443.3     -5911.6704      1571.3059     -4340.3646    
    267100   849.40718      2652631.5     -5890.6122      1550.2983     -4340.3139    
    267200   942.12235      2198795.1     -6060.2661      1719.5177     -4340.7484    
    267300   1096.0037      1253503.5     -6342.0136      2000.3747     -4341.6389    
    267400   1226.3055     -117417.69     -6580.926       2238.1954     -4342.7306    
    267500   1237.0167     -1752360.7     -6601.0356      2257.745      -4343.2906    
    267600   1093.1714     -3354389.8     -6337.5467      1995.2053     -4342.3413    
    267700   899.68533     -4488386       -5982.2949      1642.0636     -4340.2313    
    267800   848.79947     -4730148.9     -5888.7682      1549.1891     -4339.5791    
    267900   996.6885      -3974347.9     -6160.4782      1819.1093     -4341.3689    
    268000   1186.0825     -2532277.5     -6507.8523      2164.7824     -4343.0699    
    268100   1250.887      -866455.64     -6626.1843      2283.0605     -4343.1238    
    268200   1166.3047      655951.32     -6470.8428      2128.6849     -4342.1579    
    268300   1011.0992      1814024       -6186.5274      1845.4109     -4341.1165    
    268400   881.46215      2502458.1     -5949.2607      1608.8035     -4340.4572    
    268500   841.72507      2687694       -5876.5579      1536.2772     -4340.2806    
    268600   909.56365      2365213.8     -6000.6817      1660.093      -4340.5886    
    268700   1054.2662      1544204.2     -6265.5683      1924.1973     -4341.371     
    268800   1200.3922      273029.56     -6533.3583      2190.8998     -4342.4586    
    268900   1249.6888     -1315775.5     -6624.1293      2280.8735     -4343.2558    
    269000   1142.3549     -2963483.9     -6427.7325      2084.9728     -4342.7597    
    269100   943.66029     -4265309.1     -6063.0896      1722.3246     -4340.7649    
    269200   840.70275     -4767214.9     -5873.8834      1534.4113     -4339.472     
    269300   945.64026     -4254909.6     -6066.7267      1725.9384     -4340.7883    
    269400   1144.2437     -2946877.1     -6431.1946      2088.4202     -4342.7744    
    269500   1249.9656     -1297903       -6624.6311      2281.3788     -4343.2523    
    269600   1199.172       288618.66     -6531.1196      2188.6727     -4342.4469    
    269700   1052.5453      1555495.9     -6262.4168      1921.0564     -4341.3604    
    269800   908.33587      2371328       -5998.4349      1657.8522     -4340.5828    
    269900   841.56966      2688399.8     -5876.2736      1535.9936     -4340.28      
    270000   882.44656      2497742.4     -5951.0619      1610.6002     -4340.4617    
    270100   1012.7744      1804029       -6189.5946      1848.4685     -4341.126     
    270200   1167.7628      641339.4      -6473.5159      2131.346      -4342.1699    
    270300   1251.0652     -884008.12     -6626.5163      2283.3857     -4343.1306    
    270400   1184.535      -2549648.3     -6505.0181      2161.958      -4343.0602    
    270500   994.50966     -3986858.9     -6156.4775      1815.1325     -4341.345     
    270600   848.16503     -4733066.3     -5887.6019      1548.0312     -4339.5707    
    270700   901.30817     -4480404.4     -5985.277       1645.0255     -4340.2515    
    270800   1095.2935     -3338891.9     -6341.4391      1999.0785     -4342.3606    
    270900   1237.7618     -1734407.6     -6602.3962      2259.105      -4343.2912    
    271000   1225.3953     -100985.35     -6579.2542      2236.5343     -4342.72      
    271100   1094.3063      1266034.9     -6338.9042      1997.2767     -4341.6275    
    271200   940.69069      2206294.7     -6057.6459      1716.9047     -4340.7412    
    271300   848.9455       2654748.4     -5889.7676      1549.4556     -4340.3119    
    271400   861.62778      2596133.5     -5912.9705      1572.6027     -4340.3677    
    271500   973.14033      2031771.2     -6117.0389      1776.1302     -4340.9086    
    271600   1130.2274      984522.61     -6404.7169      2062.8382     -4341.8788    
    271700   1241.7468     -462532.69     -6609.3136      2266.3782     -4342.9354    
    271800   1217.4629     -2121037.7     -6565.2922      2222.0564     -4343.2358    
    271900   1048.2822     -3660955.6     -6255.1867      1913.2756     -4341.911     
    272000   870.52799     -4628848.5     -5928.709       1588.847      -4339.862     
    272100   867.31673     -4643993.4     -5922.8065      1582.986      -4339.8206    
    272200   1042.207      -3699752.9     -6244.0373      1902.1876     -4341.8497    
    272300   1214.27       -2169788.7     -6559.4511      2216.2289     -4343.2222    
    272400   1243.2994     -509315.45     -6612.1722      2269.212      -4342.9602    
    272500   1134.6401      947221.45     -6412.8033      2070.892      -4341.9113    
    272600   977.46288      2007763.2     -6124.9512      1784.0195     -4340.9316    
    272700   863.63513      2586766.3     -5916.6431      1576.2665     -4340.3766    
    272800   847.74375      2660252.9     -5887.5689      1547.2622     -4340.3067    
    272900   936.80572      2226557.9     -6050.5358      1709.814      -4340.7217    
    273000   1089.6426      1300123.8     -6330.3612      1988.7647     -4341.5965    
    273100   1222.8292     -56114.535     -6574.5413      2231.8507     -4342.6905    
    273200   1239.7056     -1685198       -6605.9446      2262.6527     -4343.2919    
    273300   1101.0725     -3296151.1     -6352.0386      2009.626      -4342.4126    
    273400   905.84499     -4457994.8     -5993.6137      1653.3059     -4340.3077    
    273500   846.55643     -4740453.2     -5884.6447      1545.0952     -4339.5495    
    273600   988.56446     -4020733.4     -6145.561       1804.2816     -4341.2793    
    273700   1180.2137     -2597125.2     -6497.1035      2154.0709     -4343.0326    
    273800   1251.4604     -932200.46     -6627.2556      2284.107      -4343.1486    
    273900   1171.7158      601077.16     -6480.7636      2138.5609     -4342.2028    
    274000   1017.3816      1776359.6     -6198.0295      1856.8772     -4341.1523    
    274100   885.19892      2484523.4     -5956.098       1615.6237     -4340.4743    
    274200   841.20907      2690036.9     -5875.6139      1535.3355     -4340.2784    
    274300   905.01881      2387790.9     -5992.365       1651.798      -4340.567     
    274400   1047.8321      1586173.3     -6253.7859      1912.4542     -4341.3317    
    274500   1195.7707      331147.97     -6524.8797      2182.4648     -4342.4149    
    274600   1250.6264     -1248967.8     -6625.8267      2282.5847     -4343.2419    
    274700   1149.3576     -2901171.5     -6440.5676      2097.7537     -4342.8139    
    274800   951.12404     -4225933.4     -6076.7998      1735.9471     -4340.8526    
    274900   840.83833     -4766597.1     -5874.1326      1534.6588     -4339.4738    
    275000   938.29456     -4293328.4     -6053.2327      1712.5314     -4340.7014    
    275100   1137.1179     -3008796.5     -6418.1327      2075.4145     -4342.7182    
    275200   1248.8318     -1364797.2     -6622.574       2279.3094     -4343.2646    
    275300   1203.6778      230115.26     -6539.3867      2196.8964     -4342.4903    
    275400   1058.9843      1512991.5     -6274.2088      1932.8087     -4341.4001    
    275500   912.9755       2348164.2     -6006.9252      1666.3202     -4340.605     
    275600   842.21623      2685462.5     -5877.4564      1537.1737     -4340.2827    
    275700   878.81934      2515086.4     -5944.4251      1603.98       -4340.4451    
    275800   1006.525       1841137.5     -6178.153       1837.0623     -4341.0907    
    275900   1162.2675      695777.12     -6463.4412      2121.3162     -4342.125     
    276000   1250.3063     -818444.17     -6625.1053      2282.0007     -4343.1046    
    276100   1190.242      -2484548.7     -6515.4693      2172.374      -4343.0953    
    276200   1002.6828     -3939654.5     -6171.484       1830.0497     -4341.4343    
    276300   850.66724     -4721547.2     -5892.2017      1552.5981     -4339.6037    
    276400   895.32966     -4509720.1     -5974.2907      1634.1138     -4340.1769    
    276500   1087.3212     -3396588.8     -6326.8155      1984.5278     -4342.2876    
    276600   1234.8767     -1801549.7     -6597.1272      2253.8392     -4343.288     
    276700   1228.7267     -162612        -6585.374       2242.6145     -4342.7595    
    276800   1100.6422      1218906.8     -6350.5109      2008.8407     -4341.6702    
    276900   946.08362      2177952.1     -6067.516       1726.7476     -4340.7684    
    277000   850.73567      2646533       -5893.0427      1552.723      -4340.3197    
    277100   859.03036      2608217.5     -5908.2182      1567.862      -4340.3562    
    277200   967.30875      2063864.6     -6106.3646      1765.4867     -4340.8779    
    277300   1124.1427      1034868.8     -6393.5673      2051.7328     -4341.8346    
    277400   1239.4311     -398989.89     -6605.0521      2262.1516     -4342.9005    
    277500   1221.6006     -2054353.4     -6572.8602      2229.6082     -4343.252     
    277600   1056.5522     -3607208       -6270.3631      1928.3697     -4341.9934    
    277700   875.17705     -4606812.2     -5937.2539      1597.3322     -4339.9217    
    277800   863.20693     -4663286.4     -5915.2523      1575.4849     -4339.7674    
    277900   1033.9043     -3751888.3     -6228.7985      1887.0337     -4341.7648    
    278000   1209.695      -2236162.8     -6551.0799      2207.8787     -4343.2012    
    278100   1245.2182     -573466.27     -6615.7072      2272.7141     -4342.993     
    278200   1140.5958      895750.25     -6423.718       2081.7621     -4341.9558    
    278300   983.42698      1974322.1     -6135.8686      1794.9049     -4340.9636    
    278400   866.51578      2573280.1     -5921.9136      1581.5241     -4340.3895    
    278500   846.25429      2667063.4     -5884.844       1544.5438     -4340.3002    
    278600   931.59689      2253528.1     -6041.0029      1700.3071     -4340.6959    
    278700   1083.2528      1346045.4     -6318.6567      1977.1023     -4341.5545    
    278800   1219.1603      4735.0853     -6567.8041      2225.1544     -4342.6497    
    278900   1242.1258     -1618027.4     -6610.3606      2267.0699     -4343.2907    
    279000   1108.8659     -3237200.1     -6366.3317      2023.8503     -4342.4814    
    279100   912.24123     -4426155.3     -6005.3666      1664.98       -4340.3866    
    279200   844.67114     -4749092.7     -5881.1789      1541.6543     -4339.5246    
    279300   980.52004     -4065975       -6130.7889      1789.5993     -4341.1895    
    279400   1174.1298     -2661604.1     -6485.9592      2142.9669     -4342.9923    
    279500   1251.7781     -998176        -6627.8584      2284.6868     -4343.1716    
    279600   1177.006       545615.92     -6490.4638      2148.2162     -4342.2475    
    279700   1023.704       1737939.8     -6209.6054      1868.4168     -4341.1887    
    279800   889.08282      2465782.8     -5963.2046      1622.7124     -4340.4923    
    279900   840.87159      2691568.3     -5874.9965      1534.7195     -4340.277     
    280000   900.60632      2409566.3     -5984.2907      1643.7446     -4340.5461    
    280100   1041.4103      1627407.6     -6242.0263      1900.7333     -4341.293     
    280200   1190.9968      388730.82     -6516.1225      2173.7516     -4342.3709    
    280300   1251.2973     -1182296.3     -6627.0354      2283.8094     -4343.226     
    280400   1156.1839     -2838348.8     -6453.0781      2110.2129     -4342.8652    
    280500   958.73662     -4185275.3     -6090.7825      1749.8413     -4340.9412    
    280600   841.34372     -4764293.5     -5875.0618      1535.5812     -4339.4805    
    280700   931.12212     -4330417.7     -6040.0563      1699.4406     -4340.6157    
    280800   1129.8324     -3070152.8     -6404.7764      2062.1173     -4342.6592    
    280900   1247.4293     -1431790.9     -6620.0244      2276.7497     -4343.2747    
    281000   1208.02        171096.78     -6547.3549      2204.8216     -4342.5333    
    281100   1065.425       1469761.1     -6286.0041      1944.5638     -4341.4403    
    281200   917.74145      2324200.7     -6015.6468      1675.0188     -4340.628     
    281300   843.04063      2681713.8     -5878.9646      1538.6783     -4340.2863    
    281400   875.34392      2531623.3     -5938.0661      1597.6368     -4340.4293    
    281500   1000.3252      1877484.1     -6166.8029      1825.7468     -4341.0561    
    281600   1156.6629      749610.8      -6453.1672      2111.0871     -4342.0801    
    281700   1249.2973     -753142.96     -6623.2362      2280.1591     -4343.0771    
    281800   1195.7224     -2419129.8     -6525.504       2182.3766     -4343.1274    
    281900   1010.9102     -3891358.9     -6186.5891      1845.0661     -4341.523     
    282000   853.51859     -4708378.2     -5897.4433      1557.8022     -4339.6411    
    282100   889.60871     -4537548.9     -5963.7772      1623.6722     -4340.105     
    282200   1079.2622     -3453518.7     -6312.0315      1969.819      -4342.2125    
    282300   1231.725      -1868642.6     -6591.3691      2248.0869     -4343.2822    
    282400   1231.8555     -224667.92     -6591.1232      2248.3251     -4342.7981    
    282500   1106.938       1171091.4     -6362.0448      2020.3315     -4341.7133    
    282600   951.57696      2148820       -6077.5702      1736.7738     -4340.7964    
    282700   852.69772      2637507       -5896.6323      1556.304      -4340.3283    
    282800   856.59897      2619491.7     -5903.7699      1563.4244     -4340.3455    
    282900   961.56029      2095176.8     -6095.8427      1754.9949     -4340.8479    
    283000   1117.9929      1084554.9     -6382.2989      2040.5083     -4341.7906    
    283100   1236.8928     -335819.79     -6600.3834      2257.5189     -4342.8645    
    283200   1225.4809     -1987525.8     -6579.9557      2236.6904     -4343.2653    
    283300   1064.7847     -3552573.2     -6285.4693      1943.3953     -4342.074     
    283400   880.12451     -4583215.5     -5946.347       1606.3621     -4339.9849    
    283500   859.42015     -4680975.3     -5908.2917      1568.5735     -4339.7182    
    283600   1025.6017     -3803049.9     -6213.5588      1871.8802     -4341.6786    
    283700   1204.8732     -2302321.7     -6542.2553      2199.0781     -4343.1772    
    283800   1246.9018     -637945.57     -6618.8114      2275.7869     -4343.0246    
    283900   1146.4679      843641.05     -6434.4801      2092.4795     -4342.0005    
    284000   989.46071      1940107.1     -6146.9138      1805.9174     -4340.9963    
    284100   869.55713      2558985.1     -5927.4782      1587.075      -4340.4032    
    284200   844.93984      2673062.9     -5882.4392      1542.1447     -4340.2945    
    284300   926.49994      2279703.8     -6031.6751      1691.0044     -4340.6707    
    284400   1076.8406      1391262.1     -6306.912       1965.3991     -4341.5129    
    284500   1215.3046      65117.64      -6560.7254      2218.1171     -4342.6083    
    284600   1244.2765     -1550872.3     -6614.2823      2270.9953     -4343.287     
    284700   1116.5402     -3177568.6     -6380.4047      2037.8569     -4342.5478    
    284800   918.8614      -4392890.7     -6017.5304      1677.0629     -4340.4675    
    284900   843.14759     -4756060.3     -5878.378       1538.8736     -4339.5044    
    285000   972.56985     -4110042.8     -6116.1888      1775.089      -4341.0998    
    285100   1167.8382     -2725685.2     -6474.4327      2131.4836     -4342.9491    
[...]
    684000   1076.3628     -3473677       -6306.7122      1964.5271     -4342.1851    
    684100   887.62836     -4547132.1     -5960.1378      1620.0578     -4340.08      
    684200   854.62145     -4703272.3     -5899.4706      1559.8151     -4339.6555    
    684300   1013.8617     -3873836       -6192.0075      1850.4529     -4341.5546    
    684400   1197.6253     -2395672.7     -6528.988       2185.8498     -4343.1382    
    684500   1248.8766     -729867.19     -6622.4581      2279.3912     -4343.0669    
    684600   1154.6343      768706.15     -6449.4487      2107.3846     -4342.0641    
    684700   998.1221       1890291.2     -6162.7697      1821.7258     -4341.0439    
    684800   874.13889      2537338.8     -5935.8612      1595.4374     -4340.4238    
    684900   843.37836      2680177       -5879.5825      1539.2948     -4340.2878    
    685000   919.47507      2315440.8     -6018.8193      1678.1829     -4340.6364    
    685100   1067.7265      1454132.5     -6290.2192      1948.7644     -4341.4548    
    685200   1209.5313      149877.02     -6550.1285      2207.58       -4342.5485    
    685300   1246.8627     -1455758.9     -6618.9932      2275.7154     -4343.2778    
    685400   1127.1912     -3091943.1     -6399.9342      2057.2968     -4342.6374    
    685500   928.6029      -4343348.3     -6035.428       1694.8426     -4340.5854    
    685600   841.61393     -4763061.4     -5875.5585      1536.0744     -4339.4841    
    685700   961.49124     -4170435.6     -6095.8419      1754.8689     -4340.973     
    685800   1158.5797     -2815773.9     -6457.4682      2114.5854     -4342.8828    
    685900   1251.4728     -1158500.5     -6627.3495      2284.1297     -4343.2198    
    686000   1189.2545      409182.61     -6512.9268      2170.5717     -4342.3551    
    686100   1039.1188      1641968.3     -6237.8303      1896.551      -4341.2793    
    686200   899.06176      2417155.6     -5981.4643      1640.9255     -4340.5388    
    686300   840.79431      2691918.9     -5874.8551      1534.5785     -4340.2766    
    686400   890.50634      2458888.3     -5965.8094      1625.3105     -4340.4989    
    686500   1025.9728      1724023.5     -6213.7594      1872.5575     -4341.2019    
    686600   1178.8664      525649.91     -6493.8754      2151.6119     -4342.2635    
    686700   1251.829      -1021812.4     -6627.9592      2284.7798     -4343.1794    
    686800   1171.9042     -2684558.1     -6481.882       2138.9048     -4342.9772    
    686900   977.66654     -4081864.1     -6125.5487      1784.3913     -4341.1574    
    687000   844.0848      -4751775.7     -5880.101       1540.5841     -4339.5168    
    687100   914.58267     -4414426.7     -6009.6688      1669.2535     -4340.4153    
    687200   1111.6235     -3215960.4     -6371.3887      2028.8833     -4342.5055    
    687300   1242.9255     -1594018.8     -6611.8192      2268.5296     -4343.2896    
    687400   1217.8032      26374.128     -6565.3124      2222.6774     -4342.635     
    687500   1080.9629      1362290.1     -6314.4624      1972.9229     -4341.5395    
    687600   929.76184      2262976.3     -6037.6446      1696.9578     -4340.6868    
    687700   845.76427      2669301.2     -5883.9475      1543.6494     -4340.2981    
    687800   867.58461      2568263       -5923.8692      1583.4749     -4340.3943    
    687900   985.5761       1962180.2     -6139.8027      1798.8274     -4340.9752    
    688000   1142.7048      877195.81     -6427.5832      2085.6114     -4341.9718    
    688100   1245.8473     -596478.57     -6616.8667      2273.8623     -4343.0045    
    688200   1207.9994     -2259838.5     -6547.977       2204.7841     -4343.1929    
    688300   1030.9356     -3770290.3     -6223.3496      1881.6155     -4341.7341    
    688400   861.81576     -4669794.6     -5912.6952      1572.9458     -4339.7493    
    688500   876.91184     -4598555.5     -5940.4424      1600.4985     -4339.9439    
    688600   1059.5001     -3587778.1     -6275.7724      1933.75       -4342.0224    
    688700   1223.0174     -2030479.9     -6575.4512      2232.1941     -4343.2571    
    688800   1238.549      -376365.11     -6603.4295      2260.5417     -4342.8877    
    688900   1121.9515      1052706.1     -6389.5523      2047.7334     -4341.8188    
    689000   965.24407      2075147.5     -6102.5854      1761.7184     -4340.8671    
    689100   858.14206      2612340.6     -5906.593       1566.2408     -4340.3523    
    689200   851.41737      2643399.5     -5894.2899      1553.9672     -4340.3227    
    689300   948.036        2167628.9     -6071.0893      1730.311      -4340.7783    
    689400   1102.8977      1201893       -6354.6429      2012.9573     -4341.6856    
    689500   1229.8687     -184746.33     -6587.4722      2244.6989     -4342.7734    
    689600   1233.7806     -1825540       -6595.1249      2251.8387     -4343.2862    
    689700   1084.4497     -3417029       -6321.5479      1979.2869     -4342.261     
    689800   893.25442     -4519839.8     -5970.4771      1630.3262     -4340.1509    
    689900   851.6467      -4717028.7     -5894.0023      1554.3857     -4339.6165    
    690000   1005.6183     -3922514.2     -6176.8736      1835.4075     -4341.4661    
    690100   1192.2274     -2461198.8     -6519.1048      2175.9977     -4343.1071    
    690200   1249.9742     -795070.09     -6624.4894      2281.3945     -4343.095     
    690300   1160.2762      715090.7      -6459.7909      2117.6819     -4342.109     
    690400   1004.3028      1854217.8     -6174.0847      1833.0065     -4341.0783    
    690500   877.55943      2521090.5     -5942.1198      1601.6804     -4340.4393    
    690600   842.49053      2684215.6     -5877.9583      1537.6743     -4340.2839    
    690700   914.66485      2339689.9     -6010.0167      1669.4035     -4340.6131    
    690800   1061.2868      1497621.2     -6278.4254      1937.011      -4341.4144    
    690900   1205.2491      209076.68     -6542.27        2199.7643     -4342.5057    
    691000   1248.3614     -1388734.8     -6621.7193      2278.4508     -4343.2685    
    691100   1134.5314     -3030795.5     -6413.3911      2070.6937     -4342.6974    
    691200   935.71004     -4306740.7     -6048.4848      1707.8142     -4340.6706    
    691300   840.97656     -4765967.2     -5874.3868      1534.9111     -4339.4756    
    691400   953.82893     -4211545.3     -6081.7682      1740.884      -4340.8842    
    691500   1151.8185     -2878771.5     -6445.0778      2102.2453     -4342.8325    
    691600   1250.8967     -1225118.3     -6626.3147      2283.0783     -4343.2365    
    691700   1194.0814      351793.99     -6521.7807      2179.3815     -4342.3992    
    691800   1045.5348      1600997.8     -6249.5791      1908.2613     -4341.3178    
    691900   903.42612      2395667       -5989.4505      1648.8911     -4340.5594    
    692000   841.06792      2690677.5     -5875.3556      1535.0778     -4340.2778    
    692100   886.57053      2477916.8     -5958.6077      1618.1271     -4340.4806    
    692200   1019.6373      1762712.4     -6202.1596      1860.9944     -4341.1652    
    692300   1173.6211      581318.55     -6484.2571      2142.0383     -4342.2188    
    692400   1251.6035     -955758.96     -6627.5252      2284.3682     -4343.157     
    692500   1178.0633     -2620218       -6493.1645      2150.146      -4343.0185    
    692600   985.67895     -4037038.7     -6140.2624      1799.0151     -4341.2472    
    692700   845.84119     -4743733.1     -5883.3299      1543.7898     -4339.5401    
    692800   908.10491     -4446778.4     -5997.7663      1657.4306     -4340.3357    
    692900   1103.8714     -3275158.2     -6357.1719      2014.7344     -4342.4375    
    693000   1240.6016     -1661186.5     -6607.5799      2264.2881     -4343.2917    
    693100   1221.5395     -34310.068     -6572.1729      2229.4969     -4342.676     
    693200   1087.3614      1316619.7     -6326.1826      1984.6012     -4341.5814    
    693300   934.93115      2236290       -6047.105       1706.3926     -4340.7124    
    693400   847.19128      2662780.5     -5886.5582      1546.2539     -4340.3043    
    693500   864.64628      2582038.3     -5918.4931      1578.112      -4340.3812    
    693600   979.58652      1995898.2     -6128.8385      1787.8955     -4340.943     
    693700   1136.7782      928896.04     -6416.7217      2074.7945     -4341.9272    
    693800   1244.0121     -532208.42     -6613.4848      2270.5127     -4342.9721    
    693900   1212.6632     -2193538.2     -6556.5113      2213.2962     -4343.215     
    694000   1039.24       -3718499.4     -6238.5917      1896.7722     -4341.8195    
    694100   865.81104     -4651073.3     -5920.039       1580.2378     -4339.8011    
    694200   872.15499     -4621151.6     -5931.6994      1591.8165     -4339.8829    
    694300   1051.2419     -3641846.5     -6260.6182      1918.6776     -4341.9407    
    694400   1218.9713     -2097218.4     -6568.0514      2224.8095     -4343.2419    
    694500   1240.9449     -439776.49     -6607.8376      2264.9146     -4342.923     
    694600   1128.0602      1002595       -6400.7457      2058.8828     -4341.8629    
    694700   971.04649      2043333.1     -6113.2062      1772.3087     -4340.8976    
    694800   860.68033      2600546.1     -5911.237       1570.8735     -4340.3635    
    694900   849.56561      2651904.7     -5890.9021      1550.5874     -4340.3146    
    695000   942.60667      2196254       -6061.1525      1720.4016     -4340.7508    
    695100   1096.5754      1249267.6     -6343.0608      2001.4181     -4341.6427    
    695200   1226.6091     -122964.59     -6581.4838      2238.7496     -4342.7342    
    695300   1236.7612     -1758412.7     -6600.569       2257.2787     -4343.2903    
    695400   1092.4544     -3359602.7     -6336.2315      1993.8967     -4342.3348    
    695500   899.14222     -4491053.2     -5981.2969      1641.0723     -4340.2245    
    695600   849.01905     -4729138.7     -5889.1718      1549.5899     -4339.582     
    695700   997.42411     -3970112.2     -6161.8288      1820.4519     -4341.377     
    695800   1186.6007     -2526415.8     -6508.8012      2165.7281     -4343.0731    
    695900   1250.8229     -860542.2      -6626.0649      2282.9434     -4343.1215    
    696000   1165.8114      660867.8      -6469.9382      2127.7844     -4342.1539    
    696100   1010.5351      1817381.3     -6185.4947      1844.3814     -4341.1133    
    696200   881.13268      2504034.9     -5948.6578      1608.2022     -4340.4557    
    696300   841.78033      2687443       -5876.659       1536.3781     -4340.2809    
    696400   909.97965      2363139.7     -6001.4429      1660.8523     -4340.5906    
    696500   1054.8464      1540385.7     -6266.6309      1925.2564     -4341.3745    
    696600   1200.8011      267765.59     -6534.1084      2191.6459     -4342.4625    
    696700   1249.5911     -1321802.6     -6623.9522      2280.6953     -4343.2569    
    696800   1141.7155     -2969073.9     -6426.5603      2083.8057     -4342.7547    
    696900   942.9954      -4268794       -6061.8682      1721.1111     -4340.7571    
    697000   840.70871     -4767187.7     -5873.8943      1534.4222     -4339.4721    
    697100   946.31034     -4251382.6     -6067.9576      1727.1614     -4340.7962    
    697200   1144.8778     -2941269.9     -6432.3568      2089.5774     -4342.7794    
    697300   1250.0546     -1291879.7     -6624.7923      2281.5413     -4343.2511    
    697400   1198.7581      293865.7      -6530.3603      2187.9173     -4342.443     
    697500   1051.9652      1559290.8     -6261.3546      1919.9977     -4341.3569    
    697600   907.92403      2373376.4     -5997.6813      1657.1005     -4340.5808    
    697700   841.52014      2688624.7     -5876.183       1535.9032     -4340.2797    
    697800   882.78084      2496139.7     -5951.6735      1611.2103     -4340.4632    
    697900   1013.3399      1800647.3     -6190.6299      1849.5007     -4341.1292    
    698000   1168.2525      636403.73     -6474.4137      2132.2398     -4342.174     
    698100   1251.1212     -889929.5      -6626.6207      2283.4878     -4343.1329    
    698200   1184.0098     -2555498.9     -6504.0561      2160.9993     -4343.0569    
    698300   993.77621     -3991058.6     -6155.1308      1813.7939     -4341.3369    
    698400   847.95685     -4734023.1     -5887.2192      1547.6512     -4339.568     
    698500   901.85925     -4477690       -5986.2897      1646.0313     -4340.2583    
    698600   1096.0074     -3333655.2     -6342.7485      2000.3814     -4342.3671    
    698700   1238.0087     -1728354.7     -6602.8469      2259.5556     -4343.2913    
    698800   1225.0853     -95452.675     -6578.6848      2235.9685     -4342.7164    
    698900   1093.7335      1270248.5     -6337.855       1996.2313     -4341.6237    
    699000   940.20972      2208810.3     -6056.7656      1716.0268     -4340.7388    
    699100   848.79265      2655449       -5889.4879      1549.1767     -4340.3113    
    699200   861.86997      2595004.6     -5913.4136      1573.0448     -4340.3688    
    699300   973.66984      2028840.4     -6118.0081      1777.0967     -4340.9114    
    699400   1130.7723      979952.88     -6405.7156      2063.8328     -4341.8828    
    699500   1241.9444     -468277.4      -6609.6774      2266.7389     -4342.9385    
    699600   1217.0775     -2127039.8     -6564.5871      2221.3529     -4343.2343    
    699700   1047.5354     -3665755.1     -6253.8162      1911.9127     -4341.9035    
    699800   870.12397     -4630757.4     -5927.9664      1588.1096     -4339.8568    
    699900   867.70272     -4642176.2     -5923.516       1583.6904     -4339.8256    
    700000   1042.9549     -3695007.4     -6245.4098      1903.5525     -4341.8573    
    700100   1214.6701     -2163796.9     -6560.1831      2216.9591     -4343.224     
    700200   1243.1151     -503550.42     -6611.8327      2268.8755     -4342.9572    
    700300   1134.0994      951828.78     -6411.8125      2069.9053     -4341.9073    
    700400   976.92894      2010739       -6123.9738      1783.045      -4340.9288    
    700500   863.38347      2587942       -5916.1827      1575.8071     -4340.3755    
    700600   847.88655      2659599.2     -5887.8302      1547.5229     -4340.3073    
    700700   937.28054      2224088.2     -6051.4047      1710.6806     -4340.7241    
    700800   1090.2172      1295950.6     -6331.4137      1989.8134     -4341.6003    
    700900   1223.1505     -61621.235     -6575.1313      2232.4372     -4342.6942    
    701000   1239.4743     -1691251.8     -6605.5224      2262.2305     -4343.2919    
    701100   1100.3646     -3301429.6     -6350.7403      2008.3341     -4342.4063    
    701200   905.27995     -4460793.7     -5992.5754      1652.2746     -4340.3008    
    701300   846.74398     -4739592.7     -5884.9895      1545.4375     -4339.552     
    701400   989.29361     -4016599.3     -6146.8999      1805.6124     -4341.2874    
    701500   1180.7516     -2591295.3     -6498.0886      2155.0526     -4343.0361    
    701600   1251.4192     -926265.32     -6627.1782      2284.0318     -4343.1464    
    701700   1171.233       606047.05     -6479.8784      2137.6796     -4342.1987    
    701800   1016.8136      1779785.2     -6196.9897      1855.8407     -4341.149     
    701900   884.85606      2486172.9     -5955.4706      1614.9979     -4340.4727    
    702000   841.24826      2689859       -5875.6856      1535.407      -4340.2786    
    702100   905.42304      2385789       -5993.1047      1652.5358     -4340.5689    
    702200   1048.4116      1582420.8     -6254.8471      1913.5119     -4341.3352    
    702300   1196.1936      325931.7      -6525.6555      2183.2366     -4342.4189    
    702400   1250.5528     -1254983.7     -6625.6938      2282.4505     -4343.2433    
    702500   1148.7335     -2906808.9     -6439.4238      2096.6147     -4342.8091    
    702600   950.44504     -4229535.2     -6075.5525      1734.7078     -4340.8447    
    702700   840.81094     -4766721.9     -5874.0823      1534.6088     -4339.4734    
    702800   938.94971     -4289920       -6054.4363      1713.7271     -4340.7092    
    702900   1137.7668     -3003238.5     -6419.3222      2076.5988     -4342.7234    
    703000   1248.945      -1358763.8     -6622.7796      2279.516      -4343.2636    
    703100   1203.2783      235409.32     -6538.6537      2196.1673     -4342.4864    
    703200   1058.4038      1516852.2     -6273.1457      1931.7492     -4341.3965    
    703300   912.55211      2350284.7     -6006.1504      1665.5475     -4340.603     
    703400   842.15066      2685760.5     -5877.3365      1537.054      -4340.2825    
    703500   879.14007      2513556.3     -5945.0119      1604.5653     -4340.4465    
    703600   1007.0863      1837824.2     -6179.1806      1838.0867     -4341.0939    
    703700   1162.7673      690895.42     -6464.3576      2122.2285     -4342.1291    
    703800   1250.385      -824342.77     -6625.2514      2282.1443     -4343.107     
    703900   1189.7368     -2490429.4     -6514.5443      2171.452      -4343.0922    
    704000   1001.9437     -3943954.1     -6170.1271      1828.7008     -4341.4263    
    704100   850.42733     -4722653.2     -5891.7607      1552.1602     -4339.6005    
    704200   895.8581      -4507138.6     -5975.2618      1635.0783     -4340.1835    
    704300   1088.0435     -3391419.7     -6328.1404      1985.8461     -4342.2943    
    704400   1235.1477     -1795500       -6597.6222      2254.3338     -4343.2884    
    704500   1228.4347     -157039.94     -6584.8375      2242.0816     -4342.7559    
    704600   1100.0727      1223182.7     -6349.4676      2007.8013     -4341.6664    
    704700   945.59339      2180539       -6066.6188      1725.8528     -4340.7659    
    704800   850.56726      2647306.6     -5892.7346      1552.4156     -4340.319     
    704900   859.25768      2607161.6     -5908.6341      1568.2769     -4340.3572    
    705000   967.83099      2061004.1     -6107.3205      1766.4399     -4340.8806    
    705001   1012.5956      1805097.9     -6189.2671      1848.1421     -4341.125     
Loop time of 742.32 on 1 procs for 500000 steps with 14121 atoms

Performance: 58.196 ns/day, 0.412 hours/ns, 673.564 timesteps/s, 9.511 Matom-step/s
79.1% CPU use with 1 MPI tasks x 1 OpenMP threads

MPI task timing breakdown:
Section |  min time  |  avg time  |  max time  |%varavg| %total
---------------------------------------------------------------
Pair    | 473.12     | 473.12     | 473.12     |   0.0 | 63.74
Neigh   | 121.74     | 121.74     | 121.74     |   0.0 | 16.40
Comm    | 8.0644     | 8.0644     | 8.0644     |   0.0 |  1.09
Output  | 87.493     | 87.493     | 87.493     |   0.0 | 11.79
Modify  | 38.536     | 38.536     | 38.536     |   0.0 |  5.19
Other   |            | 13.37      |            |       |  1.80

Nlocal:          14121 ave       14121 max       14121 min
Histogram: 1 0 0 0 0 0 0 0 0 0
Nghost:              0 ave           0 max           0 min
Histogram: 1 0 0 0 0 0 0 0 0 0
Neighs:              0 ave           0 max           0 min
Histogram: 1 0 0 0 0 0 0 0 0 0
FullNghs:       167152 ave      167152 max      167152 min
Histogram: 1 0 0 0 0 0 0 0 0 0

Total # of neighbors = 167152
Ave neighs/atom = 11.837122
Neighbor list builds = 10869
Dangerous builds = 0
Total wall time: 0:15:27
